DATA FILE Produced from netmc results (cf David Morley)
3310 atoms
7944 bonds
0 angles
0 dihedrals
0 impropers
2 atom types
2 bond types
0 angle types
0 dihedral types
0 improper types
0.00000 259.07562706943804 xlo xhi
0.00000 224.4157379303997 ylo yhi

# Pair Coeffs
#
# 1  O
# 2  Si

# Bond Coeffs
# 
# 1  O-O
# 2  Si-O
# 3  O-O rep
# 4  Si-Si rep

 Masses

1 28.10000 # O 
2 32.01000 # Si

 Atoms # molecular

1    1    2    154.44900333791816       119.40068111363584       5.0                      # Si
2    2    2    164.41315819145666       119.40068111363584       5.0                      # Si
3    3    2    174.3778883869206        119.40068111363584       5.0                      # Si
4    4    2    184.34204329779266       119.40068111363584       5.0                      # Si
5    5    2    194.30677349325654       119.40068111363584       5.0                      # Si
6    6    2    204.27092840412863       119.40068111363584       5.0                      # Si
7    7    2    214.23565859959254       119.40068111363584       5.0                      # Si
8    8    2    224.19981351046457       119.40068111363584       5.0                      # Si
9    9    2    234.16454370592848       119.40068111363584       5.0                      # Si
10   10   2    244.12869861680056       119.40068111363584       5.0                      # Si
11   11   2    254.09342881226445       119.40068111363584       5.0                      # Si
12   12   2    4.98207745543602         119.40068111363584       5.0                      # Si
13   13   2    14.946807650899943       119.40068111363584       5.0                      # Si
14   14   2    24.91096256177198        119.40068111363584       5.0                      # Si
15   15   2    34.87569275723591        119.40068111363584       5.0                      # Si
16   16   2    44.83984766810795        119.40068111363584       5.0                      # Si
17   17   2    54.80457786357187        119.40068111363584       5.0                      # Si
18   18   2    64.76873271711038        119.40068111363584       5.0                      # Si
19   19   2    74.73346291257431        119.40068111363584       5.0                      # Si
20   20   2    84.69761782344635        119.40068111363584       5.0                      # Si
21   21   2    94.66234801891027        119.40068111363584       5.0                      # Si
22   22   2    104.62650292978232       119.40068111363584       5.0                      # Si
23   23   2    129.53804077614618       122.27780595007684       5.0                      # Si
24   24   2    139.50219568701823       122.27780595007684       5.0                      # Si
25   25   2    149.46692588248214       122.27780595007684       5.0                      # Si
26   26   2    159.4310807933542        122.27780595007684       5.0                      # Si
27   27   2    169.3958109888181        122.27780595007684       5.0                      # Si
28   28   2    179.35996584235664       122.27780595007684       5.0                      # Si
29   29   2    189.32469603782053       122.27780595007684       5.0                      # Si
30   30   2    199.2888509486926        122.27780595007684       5.0                      # Si
31   31   2    209.25358114415653       122.27780595007684       5.0                      # Si
32   32   2    219.21773605502855       122.27780595007684       5.0                      # Si
33   33   2    229.18246625049247       122.27780595007684       5.0                      # Si
34   34   2    239.1466211613645        122.27780595007684       5.0                      # Si
35   35   2    249.11135135682844       122.27780595007684       5.0                      # Si
36   36   2    259.0755062677005        122.27780595007684       5.0                      # Si
37   37   2    9.964730195463925        122.27780595007684       5.0                      # Si
38   38   2    19.92888510633596        122.27780595007684       5.0                      # Si
39   39   2    29.893615301799887       122.27780595007684       5.0                      # Si
40   40   2    39.85777021267192        122.27780595007684       5.0                      # Si
41   41   2    49.82250040813586        122.27780595007684       5.0                      # Si
42   42   2    59.78665526167437        122.27780595007684       5.0                      # Si
43   43   2    69.75138545713828        122.27780595007684       5.0                      # Si
44   44   2    79.71554036801034        122.27780595007684       5.0                      # Si
45   45   2    89.68027056347425        122.27780595007684       5.0                      # Si
46   46   2    99.6444254743463         122.27780595007684       5.0                      # Si
47   47   2    109.60915566981022       122.27780595007684       5.0                      # Si
48   48   2    119.57331058068225       122.27780595007684       5.0                      # Si
49   49   2    139.50219568701823       128.0320556229588        5.0                      # Si
50   50   2    149.46692588248214       128.0320556229588        5.0                      # Si
51   51   2    159.4310807933542        128.0320556229588        5.0                      # Si
52   52   2    169.3958109888181        128.0320556229588        5.0                      # Si
53   53   2    179.35996584235664       128.0320556229588        5.0                      # Si
54   54   2    189.32469603782053       128.0320556229588        5.0                      # Si
55   55   2    199.2888509486926        128.0320556229588        5.0                      # Si
56   56   2    209.25358114415653       128.0320556229588        5.0                      # Si
57   57   2    219.21773605502855       128.0320556229588        5.0                      # Si
58   58   2    229.18246625049247       128.0320556229588        5.0                      # Si
59   59   2    239.1466211613645        128.0320556229588        5.0                      # Si
60   60   2    249.11135135682844       128.0320556229588        5.0                      # Si
61   61   2    259.0755062677005        128.0320556229588        5.0                      # Si
62   62   2    9.964730195463925        128.0320556229588        5.0                      # Si
63   63   2    19.92888510633596        128.0320556229588        5.0                      # Si
64   64   2    29.893615301799887       128.0320556229588        5.0                      # Si
65   65   2    39.85777021267192        128.0320556229588        5.0                      # Si
66   66   2    49.82250040813586        128.0320556229588        5.0                      # Si
67   67   2    59.78665526167437        128.0320556229588        5.0                      # Si
68   68   2    69.75138545713828        128.0320556229588        5.0                      # Si
69   69   2    79.71554036801034        128.0320556229588        5.0                      # Si
70   70   2    89.68027056347425        128.0320556229588        5.0                      # Si
71   71   2    99.6444254743463         128.0320556229588        5.0                      # Si
72   72   2    109.60915566981022       128.0320556229588        5.0                      # Si
73   73   2    119.57331058068225       128.0320556229588        5.0                      # Si
74   74   2    129.53804077614618       128.0320556229588        5.0                      # Si
75   75   2    134.52011823158222       130.9091804593998        5.0                      # Si
76   76   2    144.48427314245424       130.9091804593998        5.0                      # Si
77   77   2    154.44900333791816       130.9091804593998        5.0                      # Si
78   78   2    164.41315819145666       130.9091804593998        5.0                      # Si
79   79   2    174.3778883869206        130.9091804593998        5.0                      # Si
80   80   2    184.34204329779266       130.9091804593998        5.0                      # Si
81   81   2    194.30677349325654       130.9091804593998        5.0                      # Si
82   82   2    204.27092840412863       130.9091804593998        5.0                      # Si
83   83   2    214.23565859959254       130.9091804593998        5.0                      # Si
84   84   2    224.19981351046457       130.9091804593998        5.0                      # Si
85   85   2    234.16454370592848       130.9091804593998        5.0                      # Si
86   86   2    244.12869861680056       130.9091804593998        5.0                      # Si
87   87   2    254.09342881226445       130.9091804593998        5.0                      # Si
88   88   2    4.98207745543602         130.9091804593998        5.0                      # Si
89   89   2    14.946807650899943       130.9091804593998        5.0                      # Si
90   90   2    24.91096256177198        130.9091804593998        5.0                      # Si
91   91   2    34.87569275723591        130.9091804593998        5.0                      # Si
92   92   2    44.83984766810795        130.9091804593998        5.0                      # Si
93   93   2    54.80457786357187        130.9091804593998        5.0                      # Si
94   94   2    64.76873271711038        130.9091804593998        5.0                      # Si
95   95   2    74.73346291257431        130.9091804593998        5.0                      # Si
96   96   2    84.69761782344635        130.9091804593998        5.0                      # Si
97   97   2    94.66234801891027        130.9091804593998        5.0                      # Si
98   98   2    104.62650292978232       130.9091804593998        5.0                      # Si
99   99   2    114.59123312524623       130.9091804593998        5.0                      # Si
100  100  2    124.55538803611829       130.9091804593998        5.0                      # Si
101  101  2    134.52011823158222       136.6634301322818        5.0                      # Si
102  102  2    144.48427314245424       136.6634301322818        5.0                      # Si
103  103  2    154.44900333791816       136.6634301322818        5.0                      # Si
104  104  2    164.41315819145666       136.6634301322818        5.0                      # Si
105  105  2    174.3778883869206        136.6634301322818        5.0                      # Si
106  106  2    184.34204329779266       136.6634301322818        5.0                      # Si
107  107  2    194.30677349325654       136.6634301322818        5.0                      # Si
108  108  2    204.27092840412863       136.6634301322818        5.0                      # Si
109  109  2    214.23565859959254       136.6634301322818        5.0                      # Si
110  110  2    224.19981351046457       136.6634301322818        5.0                      # Si
111  111  2    234.16454370592848       136.6634301322818        5.0                      # Si
112  112  2    244.12869861680056       136.6634301322818        5.0                      # Si
113  113  2    254.09342881226445       136.6634301322818        5.0                      # Si
114  114  2    4.98207745543602         136.6634301322818        5.0                      # Si
115  115  2    14.946807650899943       136.6634301322818        5.0                      # Si
116  116  2    24.91096256177198        136.6634301322818        5.0                      # Si
117  117  2    34.87569275723591        136.6634301322818        5.0                      # Si
118  118  2    44.83984766810795        136.6634301322818        5.0                      # Si
119  119  2    54.80457786357187        136.6634301322818        5.0                      # Si
120  120  2    64.76873271711038        136.6634301322818        5.0                      # Si
121  121  2    74.73346291257431        136.6634301322818        5.0                      # Si
122  122  2    84.69761782344635        136.6634301322818        5.0                      # Si
123  123  2    94.66234801891027        136.6634301322818        5.0                      # Si
124  124  2    104.62650292978232       136.6634301322818        5.0                      # Si
125  125  2    114.59123312524623       136.6634301322818        5.0                      # Si
126  126  2    124.55538803611829       136.6634301322818        5.0                      # Si
127  127  2    129.53804077614618       139.54055502605632       5.0                      # Si
128  128  2    139.50219568701823       139.54055502605632       5.0                      # Si
129  129  2    149.46692588248214       139.54055502605632       5.0                      # Si
130  130  2    159.4310807933542        139.54055502605632       5.0                      # Si
131  131  2    169.3958109888181        139.54055502605632       5.0                      # Si
132  132  2    179.35996584235664       139.54055502605632       5.0                      # Si
133  133  2    189.32469603782053       139.54055502605632       5.0                      # Si
134  134  2    199.2888509486926        139.54055502605632       5.0                      # Si
135  135  2    209.25358114415653       139.54055502605632       5.0                      # Si
136  136  2    219.21773605502855       139.54055502605632       5.0                      # Si
137  137  2    229.18246625049247       139.54055502605632       5.0                      # Si
138  138  2    239.1466211613645        139.54055502605632       5.0                      # Si
139  139  2    249.11135135682844       139.54055502605632       5.0                      # Si
140  140  2    259.0755062677005        139.54055502605632       5.0                      # Si
141  141  2    9.964730195463925        139.54055502605632       5.0                      # Si
142  142  2    19.92888510633596        139.54055502605632       5.0                      # Si
143  143  2    29.893615301799887       139.54055502605632       5.0                      # Si
144  144  2    39.85777021267192        139.54055502605632       5.0                      # Si
145  145  2    49.82250040813586        139.54055502605632       5.0                      # Si
146  146  2    59.78665526167437        139.54055502605632       5.0                      # Si
147  147  2    69.75138545713828        139.54055502605632       5.0                      # Si
148  148  2    79.71554036801034        139.54055502605632       5.0                      # Si
149  149  2    89.68027056347425        139.54055502605632       5.0                      # Si
150  150  2    99.6444254743463         139.54055502605632       5.0                      # Si
151  151  2    109.60915566981022       139.54055502605632       5.0                      # Si
152  152  2    119.57331058068225       139.54055502605632       5.0                      # Si
153  153  2    139.50219568701823       145.2948046989383        5.0                      # Si
154  154  2    149.46692588248214       145.2948046989383        5.0                      # Si
155  155  2    159.4310807933542        145.2948046989383        5.0                      # Si
156  156  2    169.3958109888181        145.2948046989383        5.0                      # Si
157  157  2    179.35996584235664       145.2948046989383        5.0                      # Si
158  158  2    189.32469603782053       145.2948046989383        5.0                      # Si
159  159  2    199.2888509486926        145.2948046989383        5.0                      # Si
160  160  2    209.25358114415653       145.2948046989383        5.0                      # Si
161  161  2    219.21773605502855       145.2948046989383        5.0                      # Si
162  162  2    229.18246625049247       145.2948046989383        5.0                      # Si
163  163  2    239.1466211613645        145.2948046989383        5.0                      # Si
164  164  2    249.11135135682844       145.2948046989383        5.0                      # Si
165  165  2    259.0755062677005        145.2948046989383        5.0                      # Si
166  166  2    9.964730195463925        145.2948046989383        5.0                      # Si
167  167  2    19.92888510633596        145.2948046989383        5.0                      # Si
168  168  2    29.893615301799887       145.2948046989383        5.0                      # Si
169  169  2    39.85777021267192        145.2948046989383        5.0                      # Si
170  170  2    49.82250040813586        145.2948046989383        5.0                      # Si
171  171  2    59.78665526167437        145.2948046989383        5.0                      # Si
172  172  2    69.75138545713828        145.2948046989383        5.0                      # Si
173  173  2    79.71554036801034        145.2948046989383        5.0                      # Si
174  174  2    89.68027056347425        145.2948046989383        5.0                      # Si
175  175  2    99.6444254743463         145.2948046989383        5.0                      # Si
176  176  2    109.60915566981022       145.2948046989383        5.0                      # Si
177  177  2    119.57331058068225       145.2948046989383        5.0                      # Si
178  178  2    129.53804077614618       145.2948046989383        5.0                      # Si
179  179  2    134.52011823158222       148.1719295353793        5.0                      # Si
180  180  2    144.48427314245424       148.1719295353793        5.0                      # Si
181  181  2    154.44900333791816       148.1719295353793        5.0                      # Si
182  182  2    164.41315819145666       148.1719295353793        5.0                      # Si
183  183  2    174.3778883869206        148.1719295353793        5.0                      # Si
184  184  2    184.34204329779266       148.1719295353793        5.0                      # Si
185  185  2    194.30677349325654       148.1719295353793        5.0                      # Si
186  186  2    204.27092840412863       148.1719295353793        5.0                      # Si
187  187  2    214.23565859959254       148.1719295353793        5.0                      # Si
188  188  2    224.19981351046457       148.1719295353793        5.0                      # Si
189  189  2    234.16454370592848       148.1719295353793        5.0                      # Si
190  190  2    244.12869861680056       148.1719295353793        5.0                      # Si
191  191  2    254.09342881226445       148.1719295353793        5.0                      # Si
192  192  2    4.98207745543602         148.1719295353793        5.0                      # Si
193  193  2    14.946807650899943       148.1719295353793        5.0                      # Si
194  194  2    24.91096256177198        148.1719295353793        5.0                      # Si
195  195  2    34.87569275723591        148.1719295353793        5.0                      # Si
196  196  2    44.83984766810795        148.1719295353793        5.0                      # Si
197  197  2    54.80457786357187        148.1719295353793        5.0                      # Si
198  198  2    64.76873271711038        148.1719295353793        5.0                      # Si
199  199  2    74.73346291257431        148.1719295353793        5.0                      # Si
200  200  2    84.69761782344635        148.1719295353793        5.0                      # Si
201  201  2    94.66234801891027        148.1719295353793        5.0                      # Si
202  202  2    104.62650292978232       148.1719295353793        5.0                      # Si
203  203  2    114.59123312524623       148.1719295353793        5.0                      # Si
204  204  2    124.55538803611829       148.1719295353793        5.0                      # Si
205  205  2    134.52011823158222       153.92617920826126       5.0                      # Si
206  206  2    144.48427314245424       153.92617920826126       5.0                      # Si
207  207  2    154.44900333791816       153.92617920826126       5.0                      # Si
208  208  2    164.41315819145666       153.92617920826126       5.0                      # Si
209  209  2    174.3778883869206        153.92617920826126       5.0                      # Si
210  210  2    184.34204329779266       153.92617920826126       5.0                      # Si
211  211  2    194.30677349325654       153.92617920826126       5.0                      # Si
212  212  2    204.27092840412863       153.92617920826126       5.0                      # Si
213  213  2    214.23565859959254       153.92617920826126       5.0                      # Si
214  214  2    224.19981351046457       153.92617920826126       5.0                      # Si
215  215  2    234.16454370592848       153.92617920826126       5.0                      # Si
216  216  2    244.12869861680056       153.92617920826126       5.0                      # Si
217  217  2    254.09342881226445       153.92617920826126       5.0                      # Si
218  218  2    4.98207745543602         153.92617920826126       5.0                      # Si
219  219  2    14.946807650899943       153.92617920826126       5.0                      # Si
220  220  2    24.91096256177198        153.92617920826126       5.0                      # Si
221  221  2    34.87569275723591        153.92617920826126       5.0                      # Si
222  222  2    44.83984766810795        153.92617920826126       5.0                      # Si
223  223  2    54.80457786357187        153.92617920826126       5.0                      # Si
224  224  2    64.76873271711038        153.92617920826126       5.0                      # Si
225  225  2    74.73346291257431        153.92617920826126       5.0                      # Si
226  226  2    84.69761782344635        153.92617920826126       5.0                      # Si
227  227  2    94.66234801891027        153.92617920826126       5.0                      # Si
228  228  2    104.62650292978232       153.92617920826126       5.0                      # Si
229  229  2    114.59123312524623       153.92617920826126       5.0                      # Si
230  230  2    124.55538803611829       153.92617920826126       5.0                      # Si
231  231  2    129.53804077614618       156.80330410203578       5.0                      # Si
232  232  2    139.50219568701823       156.80330410203578       5.0                      # Si
233  233  2    149.46692588248214       156.80330410203578       5.0                      # Si
234  234  2    159.4310807933542        156.80330410203578       5.0                      # Si
235  235  2    169.3958109888181        156.80330410203578       5.0                      # Si
236  236  2    179.35996584235664       156.80330410203578       5.0                      # Si
237  237  2    189.32469603782053       156.80330410203578       5.0                      # Si
238  238  2    199.2888509486926        156.80330410203578       5.0                      # Si
239  239  2    209.25358114415653       156.80330410203578       5.0                      # Si
240  240  2    219.21773605502855       156.80330410203578       5.0                      # Si
241  241  2    229.18246625049247       156.80330410203578       5.0                      # Si
242  242  2    239.1466211613645        156.80330410203578       5.0                      # Si
243  243  2    249.11135135682844       156.80330410203578       5.0                      # Si
244  244  2    259.0755062677005        156.80330410203578       5.0                      # Si
245  245  2    9.964730195463925        156.80330410203578       5.0                      # Si
246  246  2    19.92888510633596        156.80330410203578       5.0                      # Si
247  247  2    29.893615301799887       156.80330410203578       5.0                      # Si
248  248  2    39.85777021267192        156.80330410203578       5.0                      # Si
249  249  2    49.82250040813586        156.80330410203578       5.0                      # Si
250  250  2    59.78665526167437        156.80330410203578       5.0                      # Si
251  251  2    69.75138545713828        156.80330410203578       5.0                      # Si
252  252  2    79.71554036801034        156.80330410203578       5.0                      # Si
253  253  2    89.68027056347425        156.80330410203578       5.0                      # Si
254  254  2    99.6444254743463         156.80330410203578       5.0                      # Si
255  255  2    109.60915566981022       156.80330410203578       5.0                      # Si
256  256  2    119.57331058068225       156.80330410203578       5.0                      # Si
257  257  2    139.50219568701823       162.55755377491778       5.0                      # Si
258  258  2    149.46692588248214       162.55755377491778       5.0                      # Si
259  259  2    159.4310807933542        162.55755377491778       5.0                      # Si
260  260  2    169.3958109888181        162.55755377491778       5.0                      # Si
261  261  2    179.35996584235664       162.55755377491778       5.0                      # Si
262  262  2    189.32469603782053       162.55755377491778       5.0                      # Si
263  263  2    199.2888509486926        162.55755377491778       5.0                      # Si
264  264  2    209.25358114415653       162.55755377491778       5.0                      # Si
265  265  2    219.21773605502855       162.55755377491778       5.0                      # Si
266  266  2    229.18246625049247       162.55755377491778       5.0                      # Si
267  267  2    239.1466211613645        162.55755377491778       5.0                      # Si
268  268  2    249.11135135682844       162.55755377491778       5.0                      # Si
269  269  2    259.0755062677005        162.55755377491778       5.0                      # Si
270  270  2    9.964730195463925        162.55755377491778       5.0                      # Si
271  271  2    19.92888510633596        162.55755377491778       5.0                      # Si
272  272  2    29.893615301799887       162.55755377491778       5.0                      # Si
273  273  2    39.85777021267192        162.55755377491778       5.0                      # Si
274  274  2    49.82250040813586        162.55755377491778       5.0                      # Si
275  275  2    59.78665526167437        162.55755377491778       5.0                      # Si
276  276  2    69.75138545713828        162.55755377491778       5.0                      # Si
277  277  2    79.71554036801034        162.55755377491778       5.0                      # Si
278  278  2    89.68027056347425        162.55755377491778       5.0                      # Si
279  279  2    99.6444254743463         162.55755377491778       5.0                      # Si
280  280  2    109.60915566981022       162.55755377491778       5.0                      # Si
281  281  2    119.57331058068225       162.55755377491778       5.0                      # Si
282  282  2    129.53804077614618       162.55755377491778       5.0                      # Si
283  283  2    134.52011823158222       165.43467861135878       5.0                      # Si
284  284  2    144.48427314245424       165.43467861135878       5.0                      # Si
285  285  2    154.44900333791816       165.43467861135878       5.0                      # Si
286  286  2    164.41315819145666       165.43467861135878       5.0                      # Si
287  287  2    174.3778883869206        165.43467861135878       5.0                      # Si
288  288  2    184.34204329779266       165.43467861135878       5.0                      # Si
289  289  2    194.30677349325654       165.43467861135878       5.0                      # Si
290  290  2    204.27092840412863       165.43467861135878       5.0                      # Si
291  291  2    214.23565859959254       165.43467861135878       5.0                      # Si
292  292  2    224.19981351046457       165.43467861135878       5.0                      # Si
293  293  2    234.16454370592848       165.43467861135878       5.0                      # Si
294  294  2    244.12869861680056       165.43467861135878       5.0                      # Si
295  295  2    254.09342881226445       165.43467861135878       5.0                      # Si
296  296  2    4.98207745543602         165.43467861135878       5.0                      # Si
297  297  2    14.946807650899943       165.43467861135878       5.0                      # Si
298  298  2    24.91096256177198        165.43467861135878       5.0                      # Si
299  299  2    34.87569275723591        165.43467861135878       5.0                      # Si
300  300  2    44.83984766810795        165.43467861135878       5.0                      # Si
301  301  2    54.80457786357187        165.43467861135878       5.0                      # Si
302  302  2    64.76873271711038        165.43467861135878       5.0                      # Si
303  303  2    74.73346291257431        165.43467861135878       5.0                      # Si
304  304  2    84.69761782344635        165.43467861135878       5.0                      # Si
305  305  2    94.66234801891027        165.43467861135878       5.0                      # Si
306  306  2    104.62650292978232       165.43467861135878       5.0                      # Si
307  307  2    114.59123312524623       165.43467861135878       5.0                      # Si
308  308  2    124.55538803611829       165.43467861135878       5.0                      # Si
309  309  2    134.52011823158222       171.18892828424075       5.0                      # Si
310  310  2    144.48427314245424       171.18892828424075       5.0                      # Si
311  311  2    154.44900333791816       171.18892828424075       5.0                      # Si