DATA FILE Produced from netmc results (cf David Morley)
7944 atoms
26480 bonds
0 angles
0 dihedrals
0 impropers
2 atom types
0 bond types
2 bond types
0 angle types
0 dihedral types
0 improper types
0.00000 259.07562706943804 xlo xhi
0.00000 224.4157379303997 ylo yhi
0.0000 200.0000 zlo zhi

# Pair Coeffs
#
# 1  O
# 2  Si

# Bond Coeffs
# 
# 1  O-O
# 2  Si-O
# 3  O-O rep
# 4  Si-Si rep

 Masses

1 28.10000 # O 
2 32.01000 # Si

 Atoms # molecular

1    1    1    154.44900333791816       119.40068111363584       8.040569334518267        # O
2    2    1    164.41315819145666       119.40068111363584       8.040569334518267        # O
3    3    1    174.3778883869206        119.40068111363584       8.040569334518267        # O
4    4    1    184.34204329779266       119.40068111363584       8.040569334518267        # O
5    5    1    194.30677349325654       119.40068111363584       8.040569334518267        # O
6    6    1    204.27092840412863       119.40068111363584       8.040569334518267        # O
7    7    1    214.23565859959254       119.40068111363584       8.040569334518267        # O
8    8    1    224.19981351046457       119.40068111363584       8.040569334518267        # O
9    9    1    234.16454370592848       119.40068111363584       8.040569334518267        # O
10   10   1    244.12869861680056       119.40068111363584       8.040569334518267        # O
11   11   1    254.09342881226445       119.40068111363584       8.040569334518267        # O
12   12   1    4.98207745543602         119.40068111363584       8.040569334518267        # O
13   13   1    14.946807650899943       119.40068111363584       8.040569334518267        # O
14   14   1    24.91096256177198        119.40068111363584       8.040569334518267        # O
15   15   1    34.87569275723591        119.40068111363584       8.040569334518267        # O
16   16   1    44.83984766810795        119.40068111363584       8.040569334518267        # O
17   17   1    54.80457786357187        119.40068111363584       8.040569334518267        # O
18   18   1    64.76873271711038        119.40068111363584       8.040569334518267        # O
19   19   1    74.73346291257431        119.40068111363584       8.040569334518267        # O
20   20   1    84.69761782344635        119.40068111363584       8.040569334518267        # O
21   21   1    94.66234801891027        119.40068111363584       8.040569334518267        # O
22   22   1    104.62650292978232       119.40068111363584       8.040569334518267        # O
23   23   1    129.53804077614618       122.27780595007684       8.040569334518267        # O
24   24   1    139.50219568701823       122.27780595007684       8.040569334518267        # O
25   25   1    149.46692588248214       122.27780595007684       8.040569334518267        # O
26   26   1    159.4310807933542        122.27780595007684       8.040569334518267        # O
27   27   1    169.3958109888181        122.27780595007684       8.040569334518267        # O
28   28   1    179.35996584235664       122.27780595007684       8.040569334518267        # O
29   29   1    189.32469603782053       122.27780595007684       8.040569334518267        # O
30   30   1    199.2888509486926        122.27780595007684       8.040569334518267        # O
31   31   1    209.25358114415653       122.27780595007684       8.040569334518267        # O
32   32   1    219.21773605502855       122.27780595007684       8.040569334518267        # O
33   33   1    229.18246625049247       122.27780595007684       8.040569334518267        # O
34   34   1    239.1466211613645        122.27780595007684       8.040569334518267        # O
35   35   1    249.11135135682844       122.27780595007684       8.040569334518267        # O
36   36   1    259.0755062677005        122.27780595007684       8.040569334518267        # O
37   37   1    9.964730195463925        122.27780595007684       8.040569334518267        # O
38   38   1    19.92888510633596        122.27780595007684       8.040569334518267        # O
39   39   1    29.893615301799887       122.27780595007684       8.040569334518267        # O
40   40   1    39.85777021267192        122.27780595007684       8.040569334518267        # O
41   41   1    49.82250040813586        122.27780595007684       8.040569334518267        # O
42   42   1    59.78665526167437        122.27780595007684       8.040569334518267        # O
43   43   1    69.75138545713828        122.27780595007684       8.040569334518267        # O
44   44   1    79.71554036801034        122.27780595007684       8.040569334518267        # O
45   45   1    89.68027056347425        122.27780595007684       8.040569334518267        # O
46   46   1    99.6444254743463         122.27780595007684       8.040569334518267        # O
47   47   1    109.60915566981022       122.27780595007684       8.040569334518267        # O
48   48   1    119.57331058068225       122.27780595007684       8.040569334518267        # O
49   49   1    139.50219568701823       128.0320556229588        8.040569334518267        # O
50   50   1    149.46692588248214       128.0320556229588        8.040569334518267        # O
51   51   1    159.4310807933542        128.0320556229588        8.040569334518267        # O
52   52   1    169.3958109888181        128.0320556229588        8.040569334518267        # O
53   53   1    179.35996584235664       128.0320556229588        8.040569334518267        # O
54   54   1    189.32469603782053       128.0320556229588        8.040569334518267        # O
55   55   1    199.2888509486926        128.0320556229588        8.040569334518267        # O
56   56   1    209.25358114415653       128.0320556229588        8.040569334518267        # O
57   57   1    219.21773605502855       128.0320556229588        8.040569334518267        # O
58   58   1    229.18246625049247       128.0320556229588        8.040569334518267        # O
59   59   1    239.1466211613645        128.0320556229588        8.040569334518267        # O
60   60   1    249.11135135682844       128.0320556229588        8.040569334518267        # O
61   61   1    259.0755062677005        128.0320556229588        8.040569334518267        # O
62   62   1    9.964730195463925        128.0320556229588        8.040569334518267        # O
63   63   1    19.92888510633596        128.0320556229588        8.040569334518267        # O
64   64   1    29.893615301799887       128.0320556229588        8.040569334518267        # O
65   65   1    39.85777021267192        128.0320556229588        8.040569334518267        # O
66   66   1    49.82250040813586        128.0320556229588        8.040569334518267        # O
67   67   1    59.78665526167437        128.0320556229588        8.040569334518267        # O
68   68   1    69.75138545713828        128.0320556229588        8.040569334518267        # O
69   69   1    79.71554036801034        128.0320556229588        8.040569334518267        # O
70   70   1    89.68027056347425        128.0320556229588        8.040569334518267        # O
71   71   1    99.6444254743463         128.0320556229588        8.040569334518267        # O
72   72   1    109.60915566981022       128.0320556229588        8.040569334518267        # O
73   73   1    119.57331058068225       128.0320556229588        8.040569334518267        # O
74   74   1    129.53804077614618       128.0320556229588        8.040569334518267        # O
75   75   1    134.52011823158222       130.9091804593998        8.040569334518267        # O
76   76   1    144.48427314245424       130.9091804593998        8.040569334518267        # O
77   77   1    154.44900333791816       130.9091804593998        8.040569334518267        # O
78   78   1    164.41315819145666       130.9091804593998        8.040569334518267        # O
79   79   1    174.3778883869206        130.9091804593998        8.040569334518267        # O
80   80   1    184.34204329779266       130.9091804593998        8.040569334518267        # O
81   81   1    194.30677349325654       130.9091804593998        8.040569334518267        # O
82   82   1    204.27092840412863       130.9091804593998        8.040569334518267        # O
83   83   1    214.23565859959254       130.9091804593998        8.040569334518267        # O
84   84   1    224.19981351046457       130.9091804593998        8.040569334518267        # O
85   85   1    234.16454370592848       130.9091804593998        8.040569334518267        # O
86   86   1    244.12869861680056       130.9091804593998        8.040569334518267        # O
87   87   1    254.09342881226445       130.9091804593998        8.040569334518267        # O
88   88   1    4.98207745543602         130.9091804593998        8.040569334518267        # O
89   89   1    14.946807650899943       130.9091804593998        8.040569334518267        # O
90   90   1    24.91096256177198        130.9091804593998        8.040569334518267        # O
91   91   1    34.87569275723591        130.9091804593998        8.040569334518267        # O
92   92   1    44.83984766810795        130.9091804593998        8.040569334518267        # O
93   93   1    54.80457786357187        130.9091804593998        8.040569334518267        # O
94   94   1    64.76873271711038        130.9091804593998        8.040569334518267        # O
95   95   1    74.73346291257431        130.9091804593998        8.040569334518267        # O
96   96   1    84.69761782344635        130.9091804593998        8.040569334518267        # O
97   97   1    94.66234801891027        130.9091804593998        8.040569334518267        # O
98   98   1    104.62650292978232       130.9091804593998        8.040569334518267        # O
99   99   1    114.59123312524623       130.9091804593998        8.040569334518267        # O
100  100  1    124.55538803611829       130.9091804593998        8.040569334518267        # O
101  101  1    134.52011823158222       136.6634301322818        8.040569334518267        # O
102  102  1    144.48427314245424       136.6634301322818        8.040569334518267        # O
103  103  1    154.44900333791816       136.6634301322818        8.040569334518267        # O
104  104  1    164.41315819145666       136.6634301322818        8.040569334518267        # O
105  105  1    174.3778883869206        136.6634301322818        8.040569334518267        # O
106  106  1    184.34204329779266       136.6634301322818        8.040569334518267        # O
107  107  1    194.30677349325654       136.6634301322818        8.040569334518267        # O
108  108  1    204.27092840412863       136.6634301322818        8.040569334518267        # O
109  109  1    214.23565859959254       136.6634301322818        8.040569334518267        # O
110  110  1    224.19981351046457       136.6634301322818        8.040569334518267        # O
111  111  1    234.16454370592848       136.6634301322818        8.040569334518267        # O
112  112  1    244.12869861680056       136.6634301322818        8.040569334518267        # O
113  113  1    254.09342881226445       136.6634301322818        8.040569334518267        # O
114  114  1    4.98207745543602         136.6634301322818        8.040569334518267        # O
115  115  1    14.946807650899943       136.6634301322818        8.040569334518267        # O
116  116  1    24.91096256177198        136.6634301322818        8.040569334518267        # O
117  117  1    34.87569275723591        136.6634301322818        8.040569334518267        # O
118  118  1    44.83984766810795        136.6634301322818        8.040569334518267        # O
119  119  1    54.80457786357187        136.6634301322818        8.040569334518267        # O
120  120  1    64.76873271711038        136.6634301322818        8.040569334518267        # O
121  121  1    74.73346291257431        136.6634301322818        8.040569334518267        # O
122  122  1    84.69761782344635        136.6634301322818        8.040569334518267        # O
123  123  1    94.66234801891027        136.6634301322818        8.040569334518267        # O
124  124  1    104.62650292978232       136.6634301322818        8.040569334518267        # O
125  125  1    114.59123312524623       136.6634301322818        8.040569334518267        # O
126  126  1    124.55538803611829       136.6634301322818        8.040569334518267        # O
127  127  1    129.53804077614618       139.54055502605632       8.040569334518267        # O
128  128  1    139.50219568701823       139.54055502605632       8.040569334518267        # O
129  129  1    149.46692588248214       139.54055502605632       8.040569334518267        # O
130  130  1    159.4310807933542        139.54055502605632       8.040569334518267        # O
131  131  1    169.3958109888181        139.54055502605632       8.040569334518267        # O
132  132  1    179.35996584235664       139.54055502605632       8.040569334518267        # O
133  133  1    189.32469603782053       139.54055502605632       8.040569334518267        # O
134  134  1    199.2888509486926        139.54055502605632       8.040569334518267        # O
135  135  1    209.25358114415653       139.54055502605632       8.040569334518267        # O
136  136  1    219.21773605502855       139.54055502605632       8.040569334518267        # O
137  137  1    229.18246625049247       139.54055502605632       8.040569334518267        # O
138  138  1    239.1466211613645        139.54055502605632       8.040569334518267        # O
139  139  1    249.11135135682844       139.54055502605632       8.040569334518267        # O
140  140  1    259.0755062677005        139.54055502605632       8.040569334518267        # O
141  141  1    9.964730195463925        139.54055502605632       8.040569334518267        # O
142  142  1    19.92888510633596        139.54055502605632       8.040569334518267        # O
143  143  1    29.893615301799887       139.54055502605632       8.040569334518267        # O
144  144  1    39.85777021267192        139.54055502605632       8.040569334518267        # O
145  145  1    49.82250040813586        139.54055502605632       8.040569334518267        # O
146  146  1    59.78665526167437        139.54055502605632       8.040569334518267        # O
147  147  1    69.75138545713828        139.54055502605632       8.040569334518267        # O
148  148  1    79.71554036801034        139.54055502605632       8.040569334518267        # O
149  149  1    89.68027056347425        139.54055502605632       8.040569334518267        # O
150  150  1    99.6444254743463         139.54055502605632       8.040569334518267        # O
151  151  1    109.60915566981022       139.54055502605632       8.040569334518267        # O
152  152  1    119.57331058068225       139.54055502605632       8.040569334518267        # O
153  153  1    139.50219568701823       145.2948046989383        8.040569334518267        # O
154  154  1    149.46692588248214       145.2948046989383        8.040569334518267        # O
155  155  1    159.4310807933542        145.2948046989383        8.040569334518267        # O
156  156  1    169.3958109888181        145.2948046989383        8.040569334518267        # O
157  157  1    179.35996584235664       145.2948046989383        8.040569334518267        # O
158  158  1    189.32469603782053       145.2948046989383        8.040569334518267        # O
159  159  1    199.2888509486926        145.2948046989383        8.040569334518267        # O
160  160  1    209.25358114415653       145.2948046989383        8.040569334518267        # O
161  161  1    219.21773605502855       145.2948046989383        8.040569334518267        # O
162  162  1    229.18246625049247       145.2948046989383        8.040569334518267        # O
163  163  1    239.1466211613645        145.2948046989383        8.040569334518267        # O
164  164  1    249.11135135682844       145.2948046989383        8.040569334518267        # O
165  165  1    259.0755062677005        145.2948046989383        8.040569334518267        # O
166  166  1    9.964730195463925        145.2948046989383        8.040569334518267        # O
167  167  1    19.92888510633596        145.2948046989383        8.040569334518267        # O
168  168  1    29.893615301799887       145.2948046989383        8.040569334518267        # O
169  169  1    39.85777021267192        145.2948046989383        8.040569334518267        # O
170  170  1    49.82250040813586        145.2948046989383        8.040569334518267        # O
171  171  1    59.78665526167437        145.2948046989383        8.040569334518267        # O
172  172  1    69.75138545713828        145.2948046989383        8.040569334518267        # O
173  173  1    79.71554036801034        145.2948046989383        8.040569334518267        # O
174  174  1    89.68027056347425        145.2948046989383        8.040569334518267        # O
175  175  1    99.6444254743463         145.2948046989383        8.040569334518267        # O
176  176  1    109.60915566981022       145.2948046989383        8.040569334518267        # O
177  177  1    119.57331058068225       145.2948046989383        8.040569334518267        # O
178  178  1    129.53804077614618       145.2948046989383        8.040569334518267        # O
179  179  1    134.52011823158222       148.1719295353793        8.040569334518267        # O
180  180  1    144.48427314245424       148.1719295353793        8.040569334518267        # O
181  181  1    154.44900333791816       148.1719295353793        8.040569334518267        # O
182  182  1    164.41315819145666       148.1719295353793        8.040569334518267        # O
183  183  1    174.3778883869206        148.1719295353793        8.040569334518267        # O
184  184  1    184.34204329779266       148.1719295353793        8.040569334518267        # O
185  185  1    194.30677349325654       148.1719295353793        8.040569334518267        # O
186  186  1    204.27092840412863       148.1719295353793        8.040569334518267        # O
187  187  1    214.23565859959254       148.1719295353793        8.040569334518267        # O
188  188  1    224.19981351046457       148.1719295353793        8.040569334518267        # O
189  189  1    234.16454370592848       148.1719295353793        8.040569334518267        # O
190  190  1    244.12869861680056       148.1719295353793        8.040569334518267        # O
191  191  1    254.09342881226445       148.1719295353793        8.040569334518267        # O
192  192  1    4.98207745543602         148.1719295353793        8.040569334518267        # O
193  193  1    14.946807650899943       148.1719295353793        8.040569334518267        # O
194  194  1    24.91096256177198        148.1719295353793        8.040569334518267        # O
195  195  1    34.87569275723591        148.1719295353793        8.040569334518267        # O
196  196  1    44.83984766810795        148.1719295353793        8.040569334518267        # O
197  197  1    54.80457786357187        148.1719295353793        8.040569334518267        # O
198  198  1    64.76873271711038        148.1719295353793        8.040569334518267        # O
199  199  1    74.73346291257431        148.1719295353793        8.040569334518267        # O
200  200  1    84.69761782344635        148.1719295353793        8.040569334518267        # O
201  201  1    94.66234801891027        148.1719295353793        8.040569334518267        # O
202  202  1    104.62650292978232       148.1719295353793        8.040569334518267        # O
203  203  1    114.59123312524623       148.1719295353793        8.040569334518267        # O
204  204  1    124.55538803611829       148.1719295353793        8.040569334518267        # O
205  205  1    134.52011823158222       153.92617920826126       8.040569334518267        # O
206  206  1    144.48427314245424       153.92617920826126       8.040569334518267        # O
207  207  1    154.44900333791816       153.92617920826126       8.040569334518267        # O
208  208  1    164.41315819145666       153.92617920826126       8.040569334518267        # O
209  209  1    174.3778883869206        153.92617920826126       8.040569334518267        # O
210  210  1    184.34204329779266       153.92617920826126       8.040569334518267        # O
211  211  1    194.30677349325654       153.92617920826126       8.040569334518267        # O
212  212  1    204.27092840412863       153.92617920826126       8.040569334518267        # O
213  213  1    214.23565859959254       153.92617920826126       8.040569334518267        # O
214  214  1    224.19981351046457       153.92617920826126       8.040569334518267        # O
215  215  1    234.16454370592848       153.92617920826126       8.040569334518267        # O
216  216  1    244.12869861680056       153.92617920826126       8.040569334518267        # O
217  217  1    254.09342881226445       153.92617920826126       8.040569334518267        # O
218  218  1    4.98207745543602         153.92617920826126       8.040569334518267        # O
219  219  1    14.946807650899943       153.92617920826126       8.040569334518267        # O
220  220  1    24.91096256177198        153.92617920826126       8.040569334518267        # O
221  221  1    34.87569275723591        153.92617920826126       8.040569334518267        # O
222  222  1    44.83984766810795        153.92617920826126       8.040569334518267        # O
223  223  1    54.80457786357187        153.92617920826126       8.040569334518267        # O
224  224  1    64.76873271711038        153.92617920826126       8.040569334518267        # O
225  225  1    74.73346291257431        153.92617920826126       8.040569334518267        # O
226  226  1    84.69761782344635        153.92617920826126       8.040569334518267        # O
227  227  1    94.66234801891027        153.92617920826126       8.040569334518267        # O
228  228  1    104.62650292978232       153.92617920826126       8.040569334518267        # O
229  229  1    114.59123312524623       153.92617920826126       8.040569334518267        # O
230  230  1    124.55538803611829       153.92617920826126       8.040569334518267        # O
231  231  1    129.53804077614618       156.80330410203578       8.040569334518267        # O
232  232  1    139.50219568701823       156.80330410203578       8.040569334518267        # O
233  233  1    149.46692588248214       156.80330410203578       8.040569334518267        # O
234  234  1    159.4310807933542        156.80330410203578       8.040569334518267        # O
235  235  1    169.3958109888181        156.80330410203578       8.040569334518267        # O
236  236  1    179.35996584235664       156.80330410203578       8.040569334518267        # O
237  237  1    189.32469603782053       156.80330410203578       8.040569334518267        # O
238  238  1    199.2888509486926        156.80330410203578       8.040569334518267        # O
239  239  1    209.25358114415653       156.80330410203578       8.040569334518267        # O
240  240  1    219.21773605502855       156.80330410203578       8.040569334518267        # O
241  241  1    229.18246625049247       156.80330410203578       8.040569334518267        # O
242  242  1    239.1466211613645        156.80330410203578       8.040569334518267        # O
243  243  1    249.11135135682844       156.80330410203578       8.040569334518267        # O
244  244  1    259.0755062677005        156.80330410203578       8.040569334518267        # O
245  245  1    9.964730195463925        156.80330410203578       8.040569334518267        # O
246  246  1    19.92888510633596        156.80330410203578       8.040569334518267        # O
247  247  1    29.893615301799887       156.80330410203578       8.040569334518267        # O
248  248  1    39.85777021267192        156.80330410203578       8.040569334518267        # O
249  249  1    49.82250040813586        156.80330410203578       8.040569334518267        # O
250  250  1    59.78665526167437        156.80330410203578       8.040569334518267        # O
251  251  1    69.75138545713828        156.80330410203578       8.040569334518267        # O
252  252  1    79.71554036801034        156.80330410203578       8.040569334518267        # O
253  253  1    89.68027056347425        156.80330410203578       8.040569334518267        # O
254  254  1    99.6444254743463         156.80330410203578       8.040569334518267        # O
255  255  1    109.60915566981022       156.80330410203578       8.040569334518267        # O
256  256  1    119.57331058068225       156.80330410203578       8.040569334518267        # O
257  257  1    139.50219568701823       162.55755377491778       8.040569334518267        # O
258  258  1    149.46692588248214       162.55755377491778       8.040569334518267        # O
259  259  1    159.4310807933542        162.55755377491778       8.040569334518267        # O
260  260  1    169.3958109888181        162.55755377491778       8.040569334518267        # O
261  261  1    179.35996584235664       162.55755377491778       8.040569334518267        # O
262  262  1    189.32469603782053       162.55755377491778       8.040569334518267        # O
263  263  1    199.2888509486926        162.55755377491778       8.040569334518267        # O
264  264  1    209.25358114415653       162.55755377491778       8.040569334518267        # O
265  265  1    219.21773605502855       162.55755377491778       8.040569334518267        # O
266  266  1    229.18246625049247       162.55755377491778       8.040569334518267        # O
267  267  1    239.1466211613645        162.55755377491778       8.040569334518267        # O
268  268  1    249.11135135682844       162.55755377491778       8.040569334518267        # O
269  269  1    259.0755062677005        162.55755377491778       8.040569334518267        # O
270  270  1    9.964730195463925        162.55755377491778       8.040569334518267        # O
271  271  1    19.92888510633596        162.55755377491778       8.040569334518267        # O
272  272  1    29.893615301799887       162.55755377491778       8.040569334518267        # O
273  273  1    39.85777021267192        162.55755377491778       8.040569334518267        # O
274  274  1    49.82250040813586        162.55755377491778       8.040569334518267        # O
275  275  1    59.78665526167437        162.55755377491778       8.040569334518267        # O
276  276  1    69.75138545713828        162.55755377491778       8.040569334518267        # O
277  277  1    79.71554036801034        162.55755377491778       8.040569334518267        # O
278  278  1    89.68027056347425        162.55755377491778       8.040569334518267        # O
279  279  1    99.6444254743463         162.55755377491778       8.040569334518267        # O
280  280  1    109.60915566981022       162.55755377491778       8.040569334518267        # O
281  281  1    119.57331058068225       162.55755377491778       8.040569334518267        # O
282  282  1    129.53804077614618       162.55755377491778       8.040569334518267        # O
283  283  1    134.52011823158222       165.43467861135878       8.040569334518267        # O
284  284  1    144.48427314245424       165.43467861135878       8.040569334518267        # O
285  285  1    154.44900333791816       165.43467861135878       8.040569334518267        # O
286  286  1    164.41315819145666       165.43467861135878       8.040569334518267        # O
287  287  1    174.3778883869206        165.43467861135878       8.040569334518267        # O
288  288  1    184.34204329779266       165.43467861135878       8.040569334518267        # O
289  289  1    194.30677349325654       165.43467861135878       8.040569334518267        # O
290  290  1    204.27092840412863       165.43467861135878       8.040569334518267        # O
291  291  1    214.23565859959254       165.43467861135878       8.040569334518267        # O
292  292  1    224.19981351046457       165.43467861135878       8.040569334518267        # O
293  293  1    234.16454370592848       165.43467861135878       8.040569334518267        # O
294  294  1    244.12869861680056       165.43467861135878       8.040569334518267        # O
295  295  1    254.09342881226445       165.43467861135878       8.040569334518267        # O
296  296  1    4.98207745543602         165.43467861135878       8.040569334518267        # O
297  297  1    14.946807650899943       165.43467861135878       8.040569334518267        # O
298  298  1    24.91096256177198        165.43467861135878       8.040569334518267        # O
299  299  1    34.87569275723591        165.43467861135878       8.040569334518267        # O
300  300  1    44.83984766810795        165.43467861135878       8.040569334518267        # O
301  301  1    54.80457786357187        165.43467861135878       8.040569334518267        # O
302  302  1    64.76873271711038        165.43467861135878       8.040569334518267        # O
303  303  1    74.73346291257431        165.43467861135878       8.040569334518267        # O
304  304  1    84.69761782344635        165.43467861135878       8.040569334518267        # O
305  305  1    94.66234801891027        165.43467861135878       8.040569334518267        # O
306  306  1    104.62650292978232       165.43467861135878       8.040569334518267        # O
307  307  1    114.59123312524623       165.43467861135878       8.040569334518267        # O
308  308  1    124.55538803611829       165.43467861135878       8.040569334518267        # O
309  309  1    134.52011823158222       171.18892828424075       8.040569334518267        # O
310  310  1    144.48427314245424       171.18892828424075       8.040569334518267        # O
311  311  1    154.44900333791816       171.18892828424075       8.040569334518267        # O
312  312  1    164.41315819145666       171.18892828424075       8.040569334518267        # O
313  313  1    174.3778883869206        171.18892828424075       8.040569334518267        # O
314  314  1    184.34204329779266       171.18892828424075       8.040569334518267        # O