DATA FILE Produced from netmc results (cf David Morley)
1524 atoms
5080 bonds
0 angles
0 dihedrals
0 impropers
2 atom types
0 bond types
2 bond types
0 angle types
0 dihedral types
0 improper types
0.00000 122.24687801057496 xlo xhi
0.00000 107.42050757072411 ylo yhi
0.0000 200.0000 zlo zhi

# Pair Coeffs
#
# 1  O
# 2  Si

# Bond Coeffs
# 
# 1  O-O
# 2  Si-O
# 3  O-O rep
# 4  Si-Si rep

 Masses

1 28.10000 # O 
2 32.01000 # Si

 Atoms # molecular

1    1    1    96.77887891398592        61.17001122847707        8.040569334518267        # O
2    2    1    106.96581974908877       61.17001122847707        8.040569334518267        # O
3    3    1    117.15334876882667       61.17001122847707        8.040569334518267        # O
4    4    1    5.093470417551427        61.17001122847707        8.040569334518267        # O
5    5    1    15.280999437289337       61.17001122847707        8.040569334518267        # O
6    6    1    25.467940272392187       61.17001122847707        8.040569334518267        # O
7    7    1    35.6554692921301         61.17001122847707        8.040569334518267        # O
8    8    1    91.68540849643448        64.1539142515899         8.040569334518267        # O
9    9    1    101.87234933153734       64.1539142515899         8.040569334518267        # O
10   10   1    112.05987835127524       64.1539142515899         8.040569334518267        # O
11   11   1    122.2468191863781        64.1539142515899         8.040569334518267        # O
12   12   1    10.187529019737909       64.1539142515899         8.040569334518267        # O
13   13   1    20.374469854840765       64.1539142515899         8.040569334518267        # O
14   14   1    30.561998874578673       64.1539142515899         8.040569334518267        # O
15   15   1    40.74893970968153        64.1539142515899         8.040569334518267        # O
16   16   1    91.68540849643448        70.1217201831485         8.040569334518267        # O
17   17   1    101.87234933153734       70.1217201831485         8.040569334518267        # O
18   18   1    112.05987835127524       70.1217201831485         8.040569334518267        # O
19   19   1    122.2468191863781        70.1217201831485         8.040569334518267        # O
20   20   1    10.187529019737909       70.1217201831485         8.040569334518267        # O
21   21   1    20.374469854840765       70.1217201831485         8.040569334518267        # O
22   22   1    30.561998874578673       70.1217201831485         8.040569334518267        # O
23   23   1    40.74893970968153        70.1217201831485         8.040569334518267        # O
24   24   1    86.591349894248          73.10562320626131        8.040569334518267        # O
25   25   1    96.77887891398592        73.10562320626131        8.040569334518267        # O
26   26   1    106.96581974908877       73.10562320626131        8.040569334518267        # O
27   27   1    117.15334876882667       73.10562320626131        8.040569334518267        # O
28   28   1    5.093470417551427        73.10562320626131        8.040569334518267        # O
29   29   1    15.280999437289337       73.10562320626131        8.040569334518267        # O
30   30   1    25.467940272392187       73.10562320626131        8.040569334518267        # O
31   31   1    35.6554692921301         73.10562320626131        8.040569334518267        # O
32   32   1    45.842410184566475       73.10562320626131        8.040569334518267        # O
33   33   1    76.40440905914515        79.07342913781991        8.040569334518267        # O
34   34   1    86.591349894248          79.07342913781991        8.040569334518267        # O
35   35   1    96.77887891398592        79.07342913781991        8.040569334518267        # O
36   36   1    106.96581974908877       79.07342913781991        8.040569334518267        # O
37   37   1    117.15334876882667       79.07342913781991        8.040569334518267        # O
38   38   1    5.093470417551427        79.07342913781991        8.040569334518267        # O
39   39   1    15.280999437289337       79.07342913781991        8.040569334518267        # O
40   40   1    25.467940272392187       79.07342913781991        8.040569334518267        # O
41   41   1    35.6554692921301         79.07342913781991        8.040569334518267        # O
42   42   1    45.842410184566475       79.07342913781991        8.040569334518267        # O
43   43   1    56.02993914697086        79.07342913781991        8.040569334518267        # O
44   44   1    61.123409621855814       82.05733216093275        8.040569334518267        # O
45   45   1    71.3109385842602         82.05733216093275        8.040569334518267        # O
46   46   1    81.49787947669657        82.05733216093275        8.040569334518267        # O
47   47   1    91.68540849643448        82.05733216093275        8.040569334518267        # O
48   48   1    101.87234933153734       82.05733216093275        8.040569334518267        # O
49   49   1    112.05987835127524       82.05733216093275        8.040569334518267        # O
50   50   1    122.2468191863781        82.05733216093275        8.040569334518267        # O
51   51   1    10.187529019737909       82.05733216093275        8.040569334518267        # O
52   52   1    20.374469854840765       82.05733216093275        8.040569334518267        # O
53   53   1    30.561998874578673       82.05733216093275        8.040569334518267        # O
54   54   1    40.74893970968153        82.05733216093275        8.040569334518267        # O
55   55   1    50.93646872941944        82.05733216093275        8.040569334518267        # O
56   56   1    71.3109385842602         88.02513814982487        8.040569334518267        # O
57   57   1    81.49787947669657        88.02513814982487        8.040569334518267        # O
58   58   1    91.68540849643448        88.02513814982487        8.040569334518267        # O
59   59   1    101.87234933153734       88.02513814982487        8.040569334518267        # O
60   60   1    112.05987835127524       88.02513814982487        8.040569334518267        # O
61   61   1    122.2468191863781        88.02513814982487        8.040569334518267        # O
62   62   1    10.187529019737909       88.02513814982487        8.040569334518267        # O
63   63   1    20.374469854840765       88.02513814982487        8.040569334518267        # O
64   64   1    30.561998874578673       88.02513814982487        8.040569334518267        # O
65   65   1    40.74893970968153        88.02513814982487        8.040569334518267        # O
66   66   1    50.93646872941944        88.02513814982487        8.040569334518267        # O
67   67   1    61.123409621855814       88.02513814982487        8.040569334518267        # O
68   68   1    66.21688003940724        91.00904111560416        8.040569334518267        # O
69   69   1    76.40440905914515        91.00904111560416        8.040569334518267        # O
70   70   1    86.591349894248          91.00904111560416        8.040569334518267        # O
71   71   1    96.77887891398592        91.00904111560416        8.040569334518267        # O
72   72   1    106.96581974908877       91.00904111560416        8.040569334518267        # O
73   73   1    117.15334876882667       91.00904111560416        8.040569334518267        # O
74   74   1    5.093470417551427        91.00904111560416        8.040569334518267        # O
75   75   1    15.280999437289337       91.00904111560416        8.040569334518267        # O
76   76   1    25.467940272392187       91.00904111560416        8.040569334518267        # O
77   77   1    35.6554692921301         91.00904111560416        8.040569334518267        # O
78   78   1    45.842410184566475       91.00904111560416        8.040569334518267        # O
79   79   1    56.02993914697086        91.00904111560416        8.040569334518267        # O
80   80   1    66.21688003940724        96.97684710449629        8.040569334518267        # O
81   81   1    76.40440905914515        96.97684710449629        8.040569334518267        # O
82   82   1    86.591349894248          96.97684710449629        8.040569334518267        # O
83   83   1    96.77887891398592        96.97684710449629        8.040569334518267        # O
84   84   1    106.96581974908877       96.97684710449629        8.040569334518267        # O
85   85   1    117.15334876882667       96.97684710449629        8.040569334518267        # O
86   86   1    5.093470417551427        96.97684710449629        8.040569334518267        # O
87   87   1    15.280999437289337       96.97684710449629        8.040569334518267        # O
88   88   1    25.467940272392187       96.97684710449629        8.040569334518267        # O
89   89   1    35.6554692921301         96.97684710449629        8.040569334518267        # O
90   90   1    45.842410184566475       96.97684710449629        8.040569334518267        # O
91   91   1    56.02993914697086        96.97684710449629        8.040569334518267        # O
92   92   1    61.123409621855814       99.96075007027557        8.040569334518267        # O
93   93   1    71.3109385842602         99.96075007027557        8.040569334518267        # O
94   94   1    81.49787947669657        99.96075007027557        8.040569334518267        # O
95   95   1    91.68540849643448        99.96075007027557        8.040569334518267        # O
96   96   1    101.87234933153734       99.96075007027557        8.040569334518267        # O
97   97   1    112.05987835127524       99.96075007027557        8.040569334518267        # O
98   98   1    122.2468191863781        99.96075007027557        8.040569334518267        # O
99   99   1    10.187529019737909       99.96075007027557        8.040569334518267        # O
100  100  1    20.374469854840765       99.96075007027557        8.040569334518267        # O
101  101  1    30.561998874578673       99.96075007027557        8.040569334518267        # O
102  102  1    40.74893970968153        99.96075007027557        8.040569334518267        # O
103  103  1    50.93646872941944        99.96075007027557        8.040569334518267        # O
104  104  1    71.3109385842602         105.92855605916769       8.040569334518267        # O
105  105  1    81.49787947669657        105.92855605916769       8.040569334518267        # O
106  106  1    91.68540849643448        105.92855605916769       8.040569334518267        # O
107  107  1    101.87234933153734       105.92855605916769       8.040569334518267        # O
108  108  1    112.05987835127524       105.92855605916769       8.040569334518267        # O
109  109  1    122.2468191863781        105.92855605916769       8.040569334518267        # O
110  110  1    10.187529019737909       105.92855605916769       8.040569334518267        # O
111  111  1    20.374469854840765       105.92855605916769       8.040569334518267        # O
112  112  1    30.561998874578673       105.92855605916769       8.040569334518267        # O
113  113  1    40.74893970968153        105.92855605916769       8.040569334518267        # O
114  114  1    50.93646872941944        105.92855605916769       8.040569334518267        # O
115  115  1    61.123409621855814       105.92855605916769       8.040569334518267        # O
116  116  1    66.21688003940724        1.4919515115564121       8.040569334518267        # O
117  117  1    76.40440905914515        1.4919515115564121       8.040569334518267        # O
118  118  1    86.591349894248          1.4919515115564121       8.040569334518267        # O
119  119  1    96.77887891398592        1.4919515115564121       8.040569334518267        # O
120  120  1    106.96581974908877       1.4919515115564121       8.040569334518267        # O
121  121  1    117.15334876882667       1.4919515115564121       8.040569334518267        # O
122  122  1    5.093470417551427        1.4919515115564121       8.040569334518267        # O
123  123  1    15.280999437289337       1.4919515115564121       8.040569334518267        # O
124  124  1    25.467940272392187       1.4919515115564121       8.040569334518267        # O
125  125  1    35.6554692921301         1.4919515115564121       8.040569334518267        # O
126  126  1    45.842410184566475       1.4919515115564121       8.040569334518267        # O
127  127  1    56.02993914697086        1.4919515115564121       8.040569334518267        # O
128  128  1    66.21688003940724        7.45975744311501         8.040569334518267        # O
129  129  1    76.40440905914515        7.45975744311501         8.040569334518267        # O
130  130  1    86.591349894248          7.45975744311501         8.040569334518267        # O
131  131  1    96.77887891398592        7.45975744311501         8.040569334518267        # O
132  132  1    106.96581974908877       7.45975744311501         8.040569334518267        # O
133  133  1    117.15334876882667       7.45975744311501         8.040569334518267        # O
134  134  1    5.093470417551427        7.45975744311501         8.040569334518267        # O
135  135  1    15.280999437289337       7.45975744311501         8.040569334518267        # O
136  136  1    25.467940272392187       7.45975744311501         8.040569334518267        # O
137  137  1    35.6554692921301         7.45975744311501         8.040569334518267        # O
138  138  1    45.842410184566475       7.45975744311501         8.040569334518267        # O
139  139  1    56.02993914697086        7.45975744311501         8.040569334518267        # O
140  140  1    61.123409621855814       10.443660466227835       8.040569334518267        # O
141  141  1    71.3109385842602         10.443660466227835       8.040569334518267        # O
142  142  1    81.49787947669657        10.443660466227835       8.040569334518267        # O
143  143  1    91.68540849643448        10.443660466227835       8.040569334518267        # O
144  144  1    101.87234933153734       10.443660466227835       8.040569334518267        # O
145  145  1    112.05987835127524       10.443660466227835       8.040569334518267        # O
146  146  1    122.2468191863781        10.443660466227835       8.040569334518267        # O
147  147  1    10.187529019737909       10.443660466227835       8.040569334518267        # O
148  148  1    20.374469854840765       10.443660466227835       8.040569334518267        # O
149  149  1    30.561998874578673       10.443660466227835       8.040569334518267        # O
150  150  1    40.74893970968153        10.443660466227835       8.040569334518267        # O
151  151  1    50.93646872941944        10.443660466227835       8.040569334518267        # O
152  152  1    71.3109385842602         16.411466455119957       8.040569334518267        # O
153  153  1    81.49787947669657        16.411466455119957       8.040569334518267        # O
154  154  1    91.68540849643448        16.411466455119957       8.040569334518267        # O
155  155  1    101.87234933153734       16.411466455119957       8.040569334518267        # O
156  156  1    112.05987835127524       16.411466455119957       8.040569334518267        # O
157  157  1    122.2468191863781        16.411466455119957       8.040569334518267        # O
158  158  1    10.187529019737909       16.411466455119957       8.040569334518267        # O
159  159  1    20.374469854840765       16.411466455119957       8.040569334518267        # O
160  160  1    30.561998874578673       16.411466455119957       8.040569334518267        # O
161  161  1    40.74893970968153        16.411466455119957       8.040569334518267        # O
162  162  1    50.93646872941944        16.411466455119957       8.040569334518267        # O
163  163  1    61.123409621855814       16.411466455119957       8.040569334518267        # O
164  164  1    66.21688003940724        19.395369420899257       8.040569334518267        # O
165  165  1    76.40440905914515        19.395369420899257       8.040569334518267        # O
166  166  1    86.591349894248          19.395369420899257       8.040569334518267        # O
167  167  1    96.77887891398592        19.395369420899257       8.040569334518267        # O
168  168  1    106.96581974908877       19.395369420899257       8.040569334518267        # O
169  169  1    117.15334876882667       19.395369420899257       8.040569334518267        # O
170  170  1    5.093470417551427        19.395369420899257       8.040569334518267        # O
171  171  1    15.280999437289337       19.395369420899257       8.040569334518267        # O
172  172  1    25.467940272392187       19.395369420899257       8.040569334518267        # O
173  173  1    35.6554692921301         19.395369420899257       8.040569334518267        # O
174  174  1    45.842410184566475       19.395369420899257       8.040569334518267        # O
175  175  1    56.02993914697086        19.395369420899257       8.040569334518267        # O
176  176  1    66.21688003940724        25.36317540979138        8.040569334518267        # O
177  177  1    76.40440905914515        25.36317540979138        8.040569334518267        # O
178  178  1    86.591349894248          25.36317540979138        8.040569334518267        # O
179  179  1    96.77887891398592        25.36317540979138        8.040569334518267        # O
180  180  1    106.96581974908877       25.36317540979138        8.040569334518267        # O
181  181  1    117.15334876882667       25.36317540979138        8.040569334518267        # O
182  182  1    5.093470417551427        25.36317540979138        8.040569334518267        # O
183  183  1    15.280999437289337       25.36317540979138        8.040569334518267        # O
184  184  1    25.467940272392187       25.36317540979138        8.040569334518267        # O
185  185  1    35.6554692921301         25.36317540979138        8.040569334518267        # O
186  186  1    45.842410184566475       25.36317540979138        8.040569334518267        # O
187  187  1    56.02993914697086        25.36317540979138        8.040569334518267        # O
188  188  1    61.123409621855814       28.34707837557068        8.040569334518267        # O
189  189  1    71.3109385842602         28.34707837557068        8.040569334518267        # O
190  190  1    81.49787947669657        28.34707837557068        8.040569334518267        # O
191  191  1    91.68540849643448        28.34707837557068        8.040569334518267        # O
192  192  1    101.87234933153734       28.34707837557068        8.040569334518267        # O
193  193  1    112.05987835127524       28.34707837557068        8.040569334518267        # O
194  194  1    122.2468191863781        28.34707837557068        8.040569334518267        # O
195  195  1    10.187529019737909       28.34707837557068        8.040569334518267        # O
196  196  1    20.374469854840765       28.34707837557068        8.040569334518267        # O
197  197  1    30.561998874578673       28.34707837557068        8.040569334518267        # O
198  198  1    40.74893970968153        28.34707837557068        8.040569334518267        # O
199  199  1    50.93646872941944        28.34707837557068        8.040569334518267        # O
200  200  1    71.3109385842602         34.3148843644628         8.040569334518267        # O
201  201  1    81.49787947669657        34.3148843644628         8.040569334518267        # O
202  202  1    91.68540849643448        34.3148843644628         8.040569334518267        # O
203  203  1    101.87234933153734       34.3148843644628         8.040569334518267        # O
204  204  1    112.05987835127524       34.3148843644628         8.040569334518267        # O
205  205  1    122.2468191863781        34.3148843644628         8.040569334518267        # O
206  206  1    10.187529019737909       34.3148843644628         8.040569334518267        # O
207  207  1    20.374469854840765       34.3148843644628         8.040569334518267        # O
208  208  1    30.561998874578673       34.3148843644628         8.040569334518267        # O
209  209  1    40.74893970968153        34.3148843644628         8.040569334518267        # O
210  210  1    50.93646872941944        34.3148843644628         8.040569334518267        # O
211  211  1    61.123409621855814       34.3148843644628         8.040569334518267        # O
212  212  1    76.40440905914515        37.2987873302421         8.040569334518267        # O
213  213  1    86.591349894248          37.2987873302421         8.040569334518267        # O
214  214  1    96.77887891398592        37.2987873302421         8.040569334518267        # O
215  215  1    106.96581974908877       37.2987873302421         8.040569334518267        # O
216  216  1    117.15334876882667       37.2987873302421         8.040569334518267        # O
217  217  1    5.093470417551427        37.2987873302421         8.040569334518267        # O
218  218  1    15.280999437289337       37.2987873302421         8.040569334518267        # O
219  219  1    25.467940272392187       37.2987873302421         8.040569334518267        # O
220  220  1    35.6554692921301         37.2987873302421         8.040569334518267        # O
221  221  1    45.842410184566475       37.2987873302421         8.040569334518267        # O
222  222  1    56.02993914697086        37.2987873302421         8.040569334518267        # O
223  223  1    86.591349894248          43.26659331913422        8.040569334518267        # O
224  224  1    96.77887891398592        43.26659331913422        8.040569334518267        # O
225  225  1    106.96581974908877       43.26659331913422        8.040569334518267        # O
226  226  1    117.15334876882667       43.26659331913422        8.040569334518267        # O
227  227  1    5.093470417551427        43.26659331913422        8.040569334518267        # O
228  228  1    15.280999437289337       43.26659331913422        8.040569334518267        # O
229  229  1    25.467940272392187       43.26659331913422        8.040569334518267        # O
230  230  1    35.6554692921301         43.26659331913422        8.040569334518267        # O
231  231  1    45.842410184566475       43.26659331913422        8.040569334518267        # O
232  232  1    91.68540849643448        46.250496284913524       8.040569334518267        # O
233  233  1    101.87234933153734       46.250496284913524       8.040569334518267        # O
234  234  1    112.05987835127524       46.250496284913524       8.040569334518267        # O
235  235  1    122.2468191863781        46.250496284913524       8.040569334518267        # O
236  236  1    10.187529019737909       46.250496284913524       8.040569334518267        # O
237  237  1    20.374469854840765       46.250496284913524       8.040569334518267        # O
238  238  1    30.561998874578673       46.250496284913524       8.040569334518267        # O
239  239  1    40.74893970968153        46.250496284913524       8.040569334518267        # O
240  240  1    91.68540849643448        52.21830227380565        8.040569334518267        # O
241  241  1    101.87234933153734       52.21830227380565        8.040569334518267        # O
242  242  1    112.05987835127524       52.21830227380565        8.040569334518267        # O
243  243  1    122.2468191863781        52.21830227380565        8.040569334518267        # O
244  244  1    10.187529019737909       52.21830227380565        8.040569334518267        # O
245  245  1    20.374469854840765       52.21830227380565        8.040569334518267        # O
246  246  1    30.561998874578673       52.21830227380565        8.040569334518267        # O
247  247  1    40.74893970968153        52.21830227380565        8.040569334518267        # O
248  248  1    96.77887891398592        55.20220523958495        8.040569334518267        # O
249  249  1    106.96581974908877       55.20220523958495        8.040569334518267        # O
250  250  1    117.15334876882667       55.20220523958495        8.040569334518267        # O
251  251  1    5.093470417551427        55.20220523958495        8.040569334518267        # O
252  252  1    15.280999437289337       55.20220523958495        8.040569334518267        # O
253  253  1    25.467940272392187       55.20220523958495        8.040569334518267        # O
254  254  1    35.6554692921301         55.20220523958495        8.040569334518267        # O
255  255  1    94.2321437052102         62.66196274003349        3.98503710016194         # O
256  256  1    94.2321437052102         62.66196274003349        12.096101568874595       # O
257  257  1    99.07561412276164        63.094975441925705       3.98503710016194         # O
258  258  1    99.07561412276164        63.094975441925705       12.096101568874595       # O
259  259  1    97.27887891398592        58.18610823403101        3.98503710016194         # O
260  260  1    97.27887891398592        58.18610823403101        12.096101568874595       # O
261  261  1    104.41908454031305       62.66196274003349        3.98503710016194         # O
262  262  1    104.41908454031305       62.66196274003349        12.096101568874595       # O
263  263  1    109.26284905018201       63.094975441925705       3.98503710016194         # O
264  264  1    109.26284905018201       63.094975441925705       12.096101568874595       # O
265  265  1    107.46581974908877       58.18610823403101        3.98503710016194         # O
266  266  1    107.46581974908877       58.18610823403101        12.096101568874595       # O
267  267  1    114.60661356005096       62.66196274003349        3.98503710016194         # O
268  268  1    114.60661356005096       62.66196274003349        12.096101568874595       # O
269  269  1    119.45008397760239       63.094975441925705       3.98503710016194         # O
270  270  1    119.45008397760239       63.094975441925705       12.096101568874595       # O
271  271  1    117.65334876882667       58.18610823403101        3.98503710016194         # O
272  272  1    117.65334876882667       58.18610823403101        12.096101568874595       # O
273  273  1    2.5467057966772844       62.66196274003349        3.98503710016194         # O
274  274  1    2.5467057966772844       62.66196274003349        12.096101568874595       # O
275  275  1    7.3904997186446675       63.094975441925705       3.98503710016194         # O
276  276  1    7.3904997186446675       63.094975441925705       12.096101568874595       # O
277  277  1    5.593470417551427        58.18610823403101        3.98503710016194         # O
278  278  1    5.593470417551427        58.18610823403101        12.096101568874595       # O
279  279  1    12.734264228513624       62.66196274003349        3.98503710016194         # O
280  280  1    12.734264228513624       62.66196274003349        12.096101568874595       # O
281  281  1    17.57773464606505        63.094975441925705       3.98503710016194         # O
282  282  1    17.57773464606505        63.094975441925705       12.096101568874595       # O
283  283  1    15.780999437289337       58.18610823403101        3.98503710016194         # O
284  284  1    15.780999437289337       58.18610823403101        12.096101568874595       # O
285  285  1    22.921205063616476       62.66196274003349        3.98503710016194         # O
286  286  1    22.921205063616476       62.66196274003349        12.096101568874595       # O
287  287  1    27.76496957348543        63.094975441925705       3.98503710016194         # O
288  288  1    27.76496957348543        63.094975441925705       12.096101568874595       # O
289  289  1    25.967940272392187       58.18610823403101        3.98503710016194         # O
290  290  1    25.967940272392187       58.18610823403101        12.096101568874595       # O
291  291  1    33.108734083354385       62.66196274003349        3.98503710016194         # O
292  292  1    33.108734083354385       62.66196274003349        12.096101568874595       # O
293  293  1    37.952204500905815       63.094975441925705       3.98503710016194         # O
294  294  1    37.952204500905815       63.094975441925705       12.096101568874595       # O
295  295  1    36.1554692921301         58.18610823403101        3.98503710016194         # O
296  296  1    36.1554692921301         58.18610823403101        12.096101568874595       # O
297  297  1    92.18540849643448        67.13781721736919        3.98503710016194         # O
298  298  1    92.18540849643448        67.13781721736919        12.096101568874595       # O
299  299  1    92.18540849643448        58.18610826269777        3.98503710016194         # O
300  300  1    92.18540849643448        58.18610826269777        12.096101568874595       # O
301  301  1    102.37234933153734       67.13781721736919        3.98503710016194         # O
302  302  1    102.37234933153734       67.13781721736919        12.096101568874595       # O
303  303  1    112.55987835127524       67.13781721736919        3.98503710016194         # O
304  304  1    112.55987835127524       67.13781721736919        12.096101568874595       # O
305  305  1    0.49994117580314423      67.13781721736919        3.98503710016194         # O
306  306  1    0.49994117580314423      67.13781721736919        12.096101568874595       # O
307  307  1    10.687529019737909       67.13781721736919        3.98503710016194         # O
308  308  1    10.687529019737909       67.13781721736919        12.096101568874595       # O
309  309  1    20.874469854840765       67.13781721736919        3.98503710016194         # O
310  310  1    20.874469854840765       67.13781721736919        12.096101568874595       # O
311  311  1    31.061998874578673       67.13781721736919        3.98503710016194         # O
312  312  1    31.061998874578673       67.13781721736919        12.096101568874595       # O
313  313  1    41.24893970968153        67.13781721736919        3.98503710016194         # O
314  314  1    41.24893970968153        67.13781721736919        12.096101568874595       # O