DATA FILE Produced from netmc results (cf David Morley)
494 atoms
1 atom types
0.00000 38.65426766228613 xlo xhi
0.00000 33.475577664918646 ylo yhi

 Masses

1 12.0000 # Si

 Atoms # molecular

1    1    25.36681638346012        18.48130850250717        0.0                     # C
2    1    27.782776719852023       18.48130850250717        0.0                     # C
3    1    30.198597574670316       18.48130850250717        0.0                     # C
4    1    32.614557911062214       18.48130850250717        0.0                     # C
5    1    35.030378765880506       18.48130850250717        0.0                     # C
6    1    37.44633910227242        18.48130850250717        0.0                     # C
7    1    1.2079104274091477       18.48130850250717        0.0                     # C
8    1    3.623870763801047        18.48130850250717        0.0                     # C
9    1    6.039691618619343        18.48130850250717        0.0                     # C
10   1    8.455651955011241        18.48130850250717        0.0                     # C
11   1    10.871472809829537       18.48130850250717        0.0                     # C
12   1    13.287433146221439       18.48130850250717        0.0                     # C
13   1    24.158905956050972       19.178716370526306       0.0                     # C
14   1    26.574866292442877       19.178716370526306       0.0                     # C
15   1    28.99068714726117        19.178716370526306       0.0                     # C
16   1    31.406647483653067       19.178716370526306       0.0                     # C
17   1    33.82246833847137        19.178716370526306       0.0                     # C
18   1    36.23842867486326        19.178716370526306       0.0                     # C
19   1    38.65424952968156        19.178716370526306       0.0                     # C
20   1    2.4159603363918993       19.178716370526306       0.0                     # C
21   1    4.831781191210195        19.178716370526306       0.0                     # C
22   1    7.247741527602094        19.178716370526306       0.0                     # C
23   1    9.66356238242039         19.178716370526306       0.0                     # C
24   1    12.079522718812289       19.178716370526306       0.0                     # C
25   1    14.495343573630585       19.178716370526306       0.0                     # C
26   1    24.158905956050972       20.573532106564585       0.0                     # C
27   1    26.574866292442877       20.573532106564585       0.0                     # C
28   1    28.99068714726117        20.573532106564585       0.0                     # C
29   1    31.406647483653067       20.573532106564585       0.0                     # C
30   1    33.82246833847137        20.573532106564585       0.0                     # C
31   1    36.23842867486326        20.573532106564585       0.0                     # C
32   1    38.65424952968156        20.573532106564585       0.0                     # C
33   1    2.4159603363918993       20.573532106564585       0.0                     # C
34   1    4.831781191210195        20.573532106564585       0.0                     # C
35   1    7.247741527602094        20.573532106564585       0.0                     # C
36   1    9.66356238242039         20.573532106564585       0.0                     # C
37   1    12.079522718812289       20.573532106564585       0.0                     # C
38   1    14.495343573630585       20.573532106564585       0.0                     # C
39   1    20.53503519224993        21.270939974583722       0.0                     # C
40   1    22.950995528641826       21.270939974583722       0.0                     # C
41   1    25.36681638346012        21.270939974583722       0.0                     # C
42   1    27.782776719852023       21.270939974583722       0.0                     # C
43   1    30.198597574670316       21.270939974583722       0.0                     # C
44   1    32.614557911062214       21.270939974583722       0.0                     # C
45   1    35.030378765880506       21.270939974583722       0.0                     # C
46   1    37.44633910227242        21.270939974583722       0.0                     # C
47   1    1.2079104274091477       21.270939974583722       0.0                     # C
48   1    3.623870763801047        21.270939974583722       0.0                     # C
49   1    6.039691618619343        21.270939974583722       0.0                     # C
50   1    8.455651955011241        21.270939974583722       0.0                     # C
51   1    10.871472809829537       21.270939974583722       0.0                     # C
52   1    13.287433146221439       21.270939974583722       0.0                     # C
53   1    15.703254001039733       21.270939974583722       0.0                     # C
54   1    18.11921433743163        21.270939974583722       0.0                     # C
55   1    20.53503519224993        22.665755710621998       0.0                     # C
56   1    22.950995528641826       22.665755710621998       0.0                     # C
57   1    25.36681638346012        22.665755710621998       0.0                     # C
58   1    27.782776719852023       22.665755710621998       0.0                     # C
59   1    30.198597574670316       22.665755710621998       0.0                     # C
60   1    32.614557911062214       22.665755710621998       0.0                     # C
61   1    35.030378765880506       22.665755710621998       0.0                     # C
62   1    37.44633910227242        22.665755710621998       0.0                     # C
63   1    1.2079104274091477       22.665755710621998       0.0                     # C
64   1    3.623870763801047        22.665755710621998       0.0                     # C
65   1    6.039691618619343        22.665755710621998       0.0                     # C
66   1    8.455651955011241        22.665755710621998       0.0                     # C
67   1    10.871472809829537       22.665755710621998       0.0                     # C
68   1    13.287433146221439       22.665755710621998       0.0                     # C
69   1    15.703254001039733       22.665755710621998       0.0                     # C
70   1    18.11921433743163        22.665755710621998       0.0                     # C
71   1    19.32712476484078        23.36316357864114        0.0                     # C
72   1    21.74308510123268        23.36316357864114        0.0                     # C
73   1    24.158905956050972       23.36316357864114        0.0                     # C
74   1    26.574866292442877       23.36316357864114        0.0                     # C
75   1    28.99068714726117        23.36316357864114        0.0                     # C
76   1    31.406647483653067       23.36316357864114        0.0                     # C
77   1    33.82246833847137        23.36316357864114        0.0                     # C
78   1    36.23842867486326        23.36316357864114        0.0                     # C
79   1    38.65424952968156        23.36316357864114        0.0                     # C
80   1    2.4159603363918993       23.36316357864114        0.0                     # C
81   1    4.831781191210195        23.36316357864114        0.0                     # C
82   1    7.247741527602094        23.36316357864114        0.0                     # C
83   1    9.66356238242039         23.36316357864114        0.0                     # C
84   1    12.079522718812289       23.36316357864114        0.0                     # C
85   1    14.495343573630585       23.36316357864114        0.0                     # C
86   1    16.911303910022482       23.36316357864114        0.0                     # C
87   1    21.74308510123268        24.757979314679414       0.0                     # C
88   1    24.158905956050972       24.757979314679414       0.0                     # C
89   1    26.574866292442877       24.757979314679414       0.0                     # C
90   1    28.99068714726117        24.757979314679414       0.0                     # C
91   1    31.406647483653067       24.757979314679414       0.0                     # C
92   1    33.82246833847137        24.757979314679414       0.0                     # C
93   1    36.23842867486326        24.757979314679414       0.0                     # C
94   1    38.65424952968156        24.757979314679414       0.0                     # C
95   1    2.4159603363918993       24.757979314679414       0.0                     # C
96   1    4.831781191210195        24.757979314679414       0.0                     # C
97   1    7.247741527602094        24.757979314679414       0.0                     # C
98   1    9.66356238242039         24.757979314679414       0.0                     # C
99   1    12.079522718812289       24.757979314679414       0.0                     # C
100  1    14.495343573630585       24.757979314679414       0.0                     # C
101  1    16.911303910022482       24.757979314679414       0.0                     # C
102  1    19.32712476484078        24.757979314679414       0.0                     # C
103  1    20.53503519224993        25.45538718269855        0.0                     # C
104  1    22.950995528641826       25.45538718269855        0.0                     # C
105  1    25.36681638346012        25.45538718269855        0.0                     # C
106  1    27.782776719852023       25.45538718269855        0.0                     # C
107  1    30.198597574670316       25.45538718269855        0.0                     # C
108  1    32.614557911062214       25.45538718269855        0.0                     # C
109  1    35.030378765880506       25.45538718269855        0.0                     # C
110  1    37.44633910227242        25.45538718269855        0.0                     # C
111  1    1.2079104274091477       25.45538718269855        0.0                     # C
112  1    3.623870763801047        25.45538718269855        0.0                     # C
113  1    6.039691618619343        25.45538718269855        0.0                     # C
114  1    8.455651955011241        25.45538718269855        0.0                     # C
115  1    10.871472809829537       25.45538718269855        0.0                     # C
116  1    13.287433146221439       25.45538718269855        0.0                     # C
117  1    15.703254001039733       25.45538718269855        0.0                     # C
118  1    18.11921433743163        25.45538718269855        0.0                     # C
119  1    20.53503519224993        26.85020291873683        0.0                     # C
120  1    22.950995528641826       26.85020291873683        0.0                     # C
121  1    25.36681638346012        26.85020291873683        0.0                     # C
122  1    27.782776719852023       26.85020291873683        0.0                     # C
123  1    30.198597574670316       26.85020291873683        0.0                     # C
124  1    32.614557911062214       26.85020291873683        0.0                     # C
125  1    35.030378765880506       26.85020291873683        0.0                     # C
126  1    37.44633910227242        26.85020291873683        0.0                     # C
127  1    1.2079104274091477       26.85020291873683        0.0                     # C
128  1    3.623870763801047        26.85020291873683        0.0                     # C
129  1    6.039691618619343        26.85020291873683        0.0                     # C
130  1    8.455651955011241        26.85020291873683        0.0                     # C
131  1    10.871472809829537       26.85020291873683        0.0                     # C
132  1    13.287433146221439       26.85020291873683        0.0                     # C
133  1    15.703254001039733       26.85020291873683        0.0                     # C
134  1    18.11921433743163        26.85020291873683        0.0                     # C
135  1    19.32712476484078        27.547610786755968       0.0                     # C
136  1    21.74308510123268        27.547610786755968       0.0                     # C
137  1    24.158905956050972       27.547610786755968       0.0                     # C
138  1    26.574866292442877       27.547610786755968       0.0                     # C
139  1    28.99068714726117        27.547610786755968       0.0                     # C
140  1    31.406647483653067       27.547610786755968       0.0                     # C
141  1    33.82246833847137        27.547610786755968       0.0                     # C
142  1    36.23842867486326        27.547610786755968       0.0                     # C
143  1    38.65424952968156        27.547610786755968       0.0                     # C
144  1    2.4159603363918993       27.547610786755968       0.0                     # C
145  1    4.831781191210195        27.547610786755968       0.0                     # C
146  1    7.247741527602094        27.547610786755968       0.0                     # C
147  1    9.66356238242039         27.547610786755968       0.0                     # C
148  1    12.079522718812289       27.547610786755968       0.0                     # C
149  1    14.495343573630585       27.547610786755968       0.0                     # C
150  1    16.911303910022482       27.547610786755968       0.0                     # C
151  1    21.74308510123268        28.942426522794243       0.0                     # C
152  1    24.158905956050972       28.942426522794243       0.0                     # C
153  1    26.574866292442877       28.942426522794243       0.0                     # C
154  1    28.99068714726117        28.942426522794243       0.0                     # C
155  1    31.406647483653067       28.942426522794243       0.0                     # C
156  1    33.82246833847137        28.942426522794243       0.0                     # C
157  1    36.23842867486326        28.942426522794243       0.0                     # C
158  1    38.65424952968156        28.942426522794243       0.0                     # C
159  1    2.4159603363918993       28.942426522794243       0.0                     # C
160  1    4.831781191210195        28.942426522794243       0.0                     # C
161  1    7.247741527602094        28.942426522794243       0.0                     # C
162  1    9.66356238242039         28.942426522794243       0.0                     # C
163  1    12.079522718812289       28.942426522794243       0.0                     # C
164  1    14.495343573630585       28.942426522794243       0.0                     # C
165  1    16.911303910022482       28.942426522794243       0.0                     # C
166  1    19.32712476484078        28.942426522794243       0.0                     # C
167  1    20.53503519224993        29.639834390813384       0.0                     # C
168  1    22.950995528641826       29.639834390813384       0.0                     # C
169  1    25.36681638346012        29.639834390813384       0.0                     # C
170  1    27.782776719852023       29.639834390813384       0.0                     # C
171  1    30.198597574670316       29.639834390813384       0.0                     # C
172  1    32.614557911062214       29.639834390813384       0.0                     # C
173  1    35.030378765880506       29.639834390813384       0.0                     # C
174  1    37.44633910227242        29.639834390813384       0.0                     # C
175  1    1.2079104274091477       29.639834390813384       0.0                     # C
176  1    3.623870763801047        29.639834390813384       0.0                     # C
177  1    6.039691618619343        29.639834390813384       0.0                     # C
178  1    8.455651955011241        29.639834390813384       0.0                     # C
179  1    10.871472809829537       29.639834390813384       0.0                     # C
180  1    13.287433146221439       29.639834390813384       0.0                     # C
181  1    15.703254001039733       29.639834390813384       0.0                     # C
182  1    18.11921433743163        29.639834390813384       0.0                     # C
183  1    20.53503519224993        31.03465012685166        0.0                     # C
184  1    22.950995528641826       31.03465012685166        0.0                     # C
185  1    25.36681638346012        31.03465012685166        0.0                     # C
186  1    27.782776719852023       31.03465012685166        0.0                     # C
187  1    30.198597574670316       31.03465012685166        0.0                     # C
188  1    32.614557911062214       31.03465012685166        0.0                     # C
189  1    35.030378765880506       31.03465012685166        0.0                     # C
190  1    37.44633910227242        31.03465012685166        0.0                     # C
191  1    1.2079104274091477       31.03465012685166        0.0                     # C
192  1    3.623870763801047        31.03465012685166        0.0                     # C
193  1    6.039691618619343        31.03465012685166        0.0                     # C
194  1    8.455651955011241        31.03465012685166        0.0                     # C
195  1    10.871472809829537       31.03465012685166        0.0                     # C
196  1    13.287433146221439       31.03465012685166        0.0                     # C
197  1    15.703254001039733       31.03465012685166        0.0                     # C
198  1    18.11921433743163        31.03465012685166        0.0                     # C
199  1    19.32712476484078        31.732057994870797       0.0                     # C
200  1    21.74308510123268        31.732057994870797       0.0                     # C
201  1    24.158905956050972       31.732057994870797       0.0                     # C
202  1    26.574866292442877       31.732057994870797       0.0                     # C
203  1    28.99068714726117        31.732057994870797       0.0                     # C
204  1    31.406647483653067       31.732057994870797       0.0                     # C
205  1    33.82246833847137        31.732057994870797       0.0                     # C
206  1    36.23842867486326        31.732057994870797       0.0                     # C
207  1    38.65424952968156        31.732057994870797       0.0                     # C
208  1    2.4159603363918993       31.732057994870797       0.0                     # C
209  1    4.831781191210195        31.732057994870797       0.0                     # C
210  1    7.247741527602094        31.732057994870797       0.0                     # C
211  1    9.66356238242039         31.732057994870797       0.0                     # C
212  1    12.079522718812289       31.732057994870797       0.0                     # C
213  1    14.495343573630585       31.732057994870797       0.0                     # C
214  1    16.911303910022482       31.732057994870797       0.0                     # C
215  1    21.74308510123268        33.126873730909075       0.0                     # C
216  1    24.158905956050972       33.126873730909075       0.0                     # C
217  1    26.574866292442877       33.126873730909075       0.0                     # C
218  1    28.99068714726117        33.126873730909075       0.0                     # C
219  1    31.406647483653067       33.126873730909075       0.0                     # C
220  1    33.82246833847137        33.126873730909075       0.0                     # C
221  1    36.23842867486326        33.126873730909075       0.0                     # C
222  1    38.65424952968156        33.126873730909075       0.0                     # C
223  1    2.4159603363918993       33.126873730909075       0.0                     # C
224  1    4.831781191210195        33.126873730909075       0.0                     # C
225  1    7.247741527602094        33.126873730909075       0.0                     # C
226  1    9.66356238242039         33.126873730909075       0.0                     # C
227  1    12.079522718812289       33.126873730909075       0.0                     # C
228  1    14.495343573630585       33.126873730909075       0.0                     # C
229  1    16.911303910022482       33.126873730909075       0.0                     # C
230  1    19.32712476484078        33.126873730909075       0.0                     # C
231  1    20.53503519224993        0.3487039340095692       0.0                     # C
232  1    22.950995528641826       0.3487039340095692       0.0                     # C
233  1    25.36681638346012        0.3487039340095692       0.0                     # C
234  1    27.782776719852023       0.3487039340095692       0.0                     # C
235  1    30.198597574670316       0.3487039340095692       0.0                     # C
236  1    32.614557911062214       0.3487039340095692       0.0                     # C
237  1    35.030378765880506       0.3487039340095692       0.0                     # C
238  1    37.44633910227242        0.3487039340095692       0.0                     # C
239  1    1.2079104274091477       0.3487039340095692       0.0                     # C
240  1    3.623870763801047        0.3487039340095692       0.0                     # C
241  1    6.039691618619343        0.3487039340095692       0.0                     # C
242  1    8.455651955011241        0.3487039340095692       0.0                     # C
243  1    10.871472809829537       0.3487039340095692       0.0                     # C
244  1    13.287433146221439       0.3487039340095692       0.0                     # C
245  1    15.703254001039733       0.3487039340095692       0.0                     # C
246  1    18.11921433743163        0.3487039340095692       0.0                     # C
247  1    20.53503519224993        1.743519670047846        0.0                     # C
248  1    22.950995528641826       1.743519670047846        0.0                     # C
249  1    25.36681638346012        1.743519670047846        0.0                     # C
250  1    27.782776719852023       1.743519670047846        0.0                     # C
251  1    30.198597574670316       1.743519670047846        0.0                     # C
252  1    32.614557911062214       1.743519670047846        0.0                     # C
253  1    35.030378765880506       1.743519670047846        0.0                     # C
254  1    37.44633910227242        1.743519670047846        0.0                     # C
255  1    1.2079104274091477       1.743519670047846        0.0                     # C
256  1    3.623870763801047        1.743519670047846        0.0                     # C
257  1    6.039691618619343        1.743519670047846        0.0                     # C
258  1    8.455651955011241        1.743519670047846        0.0                     # C
259  1    10.871472809829537       1.743519670047846        0.0                     # C
260  1    13.287433146221439       1.743519670047846        0.0                     # C
261  1    15.703254001039733       1.743519670047846        0.0                     # C
262  1    18.11921433743163        1.743519670047846        0.0                     # C
263  1    19.32712476484078        2.440927538066984        0.0                     # C
264  1    21.74308510123268        2.440927538066984        0.0                     # C
265  1    24.158905956050972       2.440927538066984        0.0                     # C
266  1    26.574866292442877       2.440927538066984        0.0                     # C
267  1    28.99068714726117        2.440927538066984        0.0                     # C
268  1    31.406647483653067       2.440927538066984        0.0                     # C
269  1    33.82246833847137        2.440927538066984        0.0                     # C
270  1    36.23842867486326        2.440927538066984        0.0                     # C
271  1    38.65424952968156        2.440927538066984        0.0                     # C
272  1    2.4159603363918993       2.440927538066984        0.0                     # C
273  1    4.831781191210195        2.440927538066984        0.0                     # C
274  1    7.247741527602094        2.440927538066984        0.0                     # C
275  1    9.66356238242039         2.440927538066984        0.0                     # C
276  1    12.079522718812289       2.440927538066984        0.0                     # C
277  1    14.495343573630585       2.440927538066984        0.0                     # C
278  1    16.911303910022482       2.440927538066984        0.0                     # C
279  1    21.74308510123268        3.8357432741052615       0.0                     # C
280  1    24.158905956050972       3.8357432741052615       0.0                     # C
281  1    26.574866292442877       3.8357432741052615       0.0                     # C
282  1    28.99068714726117        3.8357432741052615       0.0                     # C
283  1    31.406647483653067       3.8357432741052615       0.0                     # C
284  1    33.82246833847137        3.8357432741052615       0.0                     # C
285  1    36.23842867486326        3.8357432741052615       0.0                     # C
286  1    38.65424952968156        3.8357432741052615       0.0                     # C
287  1    2.4159603363918993       3.8357432741052615       0.0                     # C
288  1    4.831781191210195        3.8357432741052615       0.0                     # C
289  1    7.247741527602094        3.8357432741052615       0.0                     # C
290  1    9.66356238242039         3.8357432741052615       0.0                     # C
291  1    12.079522718812289       3.8357432741052615       0.0                     # C
292  1    14.495343573630585       3.8357432741052615       0.0                     # C
293  1    16.911303910022482       3.8357432741052615       0.0                     # C
294  1    19.32712476484078        3.8357432741052615       0.0                     # C
295  1    20.53503519224993        4.5331511421244          0.0                     # C
296  1    22.950995528641826       4.5331511421244          0.0                     # C
297  1    25.36681638346012        4.5331511421244          0.0                     # C
298  1    27.782776719852023       4.5331511421244          0.0                     # C
299  1    30.198597574670316       4.5331511421244          0.0                     # C
300  1    32.614557911062214       4.5331511421244          0.0                     # C
301  1    35.030378765880506       4.5331511421244          0.0                     # C
302  1    37.44633910227242        4.5331511421244          0.0                     # C
303  1    1.2079104274091477       4.5331511421244          0.0                     # C
304  1    3.623870763801047        4.5331511421244          0.0                     # C
305  1    6.039691618619343        4.5331511421244          0.0                     # C
306  1    8.455651955011241        4.5331511421244          0.0                     # C
307  1    10.871472809829537       4.5331511421244          0.0                     # C
308  1    13.287433146221439       4.5331511421244          0.0                     # C
309  1    15.703254001039733       4.5331511421244          0.0                     # C
310  1    18.11921433743163        4.5331511421244          0.0                     # C
311  1    20.53503519224993        5.927966878162676        0.0                     # C
312  1    22.950995528641826       5.927966878162676        0.0                     # C
313  1    25.36681638346012        5.927966878162676        0.0                     # C
314  1    27.782776719852023       5.927966878162676        0.0                     # C
315  1    30.198597574670316       5.927966878162676        0.0                     # C
316  1    32.614557911062214       5.927966878162676        0.0                     # C
317  1    35.030378765880506       5.927966878162676        0.0                     # C
318  1    37.44633910227242        5.927966878162676        0.0                     # C
319  1    1.2079104274091477       5.927966878162676        0.0                     # C
320  1    3.623870763801047        5.927966878162676        0.0                     # C
321  1    6.039691618619343        5.927966878162676        0.0                     # C
322  1    8.455651955011241        5.927966878162676        0.0                     # C
323  1    10.871472809829537       5.927966878162676        0.0                     # C
324  1    13.287433146221439       5.927966878162676        0.0                     # C
325  1    15.703254001039733       5.927966878162676        0.0                     # C
326  1    18.11921433743163        5.927966878162676        0.0                     # C
327  1    19.32712476484078        6.625374746181815        0.0                     # C
328  1    21.74308510123268        6.625374746181815        0.0                     # C
329  1    24.158905956050972       6.625374746181815        0.0                     # C
330  1    26.574866292442877       6.625374746181815        0.0                     # C
331  1    28.99068714726117        6.625374746181815        0.0                     # C
332  1    31.406647483653067       6.625374746181815        0.0                     # C
333  1    33.82246833847137        6.625374746181815        0.0                     # C
334  1    36.23842867486326        6.625374746181815        0.0                     # C
335  1    38.65424952968156        6.625374746181815        0.0                     # C
336  1    2.4159603363918993       6.625374746181815        0.0                     # C
337  1    4.831781191210195        6.625374746181815        0.0                     # C
338  1    7.247741527602094        6.625374746181815        0.0                     # C