DATA FILE Produced from netmc results (cf David Morley)
494 atoms
741 bonds
1482 angles
0 dihedrals
0 impropers
1 atom types
1 bond types
1 angle types
0 dihedral types
0 improper types
0.00000 27.221315255131078 xlo xhi
0.00000 23.574350468252568 ylo yhi

# Pair Coeffs
#
# 1  Si

# Bond Coeffs
# 
# 1  Si-Si

# Angle Coeffs
# 
# 1  Si-Si-Si

 Masses

1 28.085500 # Si

 Atoms # molecular

1    1    1    17.863955199619802       13.015005987681105       0.0                     # Si
2    2    1    19.565335718205652       13.015005987681105       0.0                     # Si
3    3    1    21.26661801033121        13.015005987681105       0.0                     # Si
4    4    1    22.967998528917054       13.015005987681105       0.0                     # Si
5    5    1    24.669280821042612       13.015005987681105       0.0                     # Si
6    6    1    26.370661339628462       13.015005987681105       0.0                     # Si
7    7    1    0.8506411460627801       13.015005987681105       0.0                     # Si
8    8    1    2.552021664648625        13.015005987681105       0.0                     # Si
9    9    1    4.253303956774185        13.015005987681105       0.0                     # Si
10   10   1    5.95468447536003         13.015005987681105       0.0                     # Si
11   11   1    7.65596676748559         13.015005987681105       0.0                     # Si
12   12   1    9.357347286071436        13.015005987681105       0.0                     # Si
13   13   1    17.013314053557025       13.506138289103033       0.0                     # Si
14   14   1    18.71469457214287        13.506138289103033       0.0                     # Si
15   15   1    20.41597686426843        13.506138289103033       0.0                     # Si
16   16   1    22.117357382854273       13.506138289103033       0.0                     # Si
17   17   1    23.818639674979835       13.506138289103033       0.0                     # Si
18   18   1    25.520020193565678       13.506138289103033       0.0                     # Si
19   19   1    27.22130248569124        13.506138289103033       0.0                     # Si
20   20   1    1.7013805185858446       13.506138289103033       0.0                     # Si
21   21   1    3.402662810711405        13.506138289103033       0.0                     # Si
22   22   1    5.10404332929725         13.506138289103033       0.0                     # Si
23   23   1    6.80532562142281         13.506138289103033       0.0                     # Si
24   24   1    8.506706140008655        13.506138289103033       0.0                     # Si
25   25   1    10.207988432134215       13.506138289103033       0.0                     # Si
26   26   1    17.013314053557025       14.48840289194689        0.0                     # Si
27   27   1    18.71469457214287        14.48840289194689        0.0                     # Si
28   28   1    20.41597686426843        14.48840289194689        0.0                     # Si
29   29   1    22.117357382854273       14.48840289194689        0.0                     # Si
30   30   1    23.818639674979835       14.48840289194689        0.0                     # Si
31   31   1    25.520020193565678       14.48840289194689        0.0                     # Si
32   32   1    27.22130248569124        14.48840289194689        0.0                     # Si
33   33   1    1.7013805185858446       14.48840289194689        0.0                     # Si
34   34   1    3.402662810711405        14.48840289194689        0.0                     # Si
35   35   1    5.10404332929725         14.48840289194689        0.0                     # Si
36   36   1    6.80532562142281         14.48840289194689        0.0                     # Si
37   37   1    8.506706140008655        14.48840289194689        0.0                     # Si
38   38   1    10.207988432134215       14.48840289194689        0.0                     # Si
39   39   1    14.4612923889084         14.979535193368818       0.0                     # Si
40   40   1    16.162672907494244       14.979535193368818       0.0                     # Si
41   41   1    17.863955199619802       14.979535193368818       0.0                     # Si
42   42   1    19.565335718205652       14.979535193368818       0.0                     # Si
43   43   1    21.26661801033121        14.979535193368818       0.0                     # Si
44   44   1    22.967998528917054       14.979535193368818       0.0                     # Si
45   45   1    24.669280821042612       14.979535193368818       0.0                     # Si
46   46   1    26.370661339628462       14.979535193368818       0.0                     # Si
47   47   1    0.8506411460627801       14.979535193368818       0.0                     # Si
48   48   1    2.552021664648625        14.979535193368818       0.0                     # Si
49   49   1    4.253303956774185        14.979535193368818       0.0                     # Si
50   50   1    5.95468447536003         14.979535193368818       0.0                     # Si
51   51   1    7.65596676748559         14.979535193368818       0.0                     # Si
52   52   1    9.357347286071436        14.979535193368818       0.0                     # Si
53   53   1    11.058629578196996       14.979535193368818       0.0                     # Si
54   54   1    12.760010096782839       14.979535193368818       0.0                     # Si
55   55   1    14.4612923889084         15.961799796212675       0.0                     # Si
56   56   1    16.162672907494244       15.961799796212675       0.0                     # Si
57   57   1    17.863955199619802       15.961799796212675       0.0                     # Si
58   58   1    19.565335718205652       15.961799796212675       0.0                     # Si
59   59   1    21.26661801033121        15.961799796212675       0.0                     # Si
60   60   1    22.967998528917054       15.961799796212675       0.0                     # Si
61   61   1    24.669280821042612       15.961799796212675       0.0                     # Si
62   62   1    26.370661339628462       15.961799796212675       0.0                     # Si
63   63   1    0.8506411460627801       15.961799796212675       0.0                     # Si
64   64   1    2.552021664648625        15.961799796212675       0.0                     # Si
65   65   1    4.253303956774185        15.961799796212675       0.0                     # Si
66   66   1    5.95468447536003         15.961799796212675       0.0                     # Si
67   67   1    7.65596676748559         15.961799796212675       0.0                     # Si
68   68   1    9.357347286071436        15.961799796212675       0.0                     # Si
69   69   1    11.058629578196996       15.961799796212675       0.0                     # Si
70   70   1    12.760010096782839       15.961799796212675       0.0                     # Si
71   71   1    13.61065124284562        16.452932097634605       0.0                     # Si
72   72   1    15.312031761431465       16.452932097634605       0.0                     # Si
73   73   1    17.013314053557025       16.452932097634605       0.0                     # Si
74   74   1    18.71469457214287        16.452932097634605       0.0                     # Si
75   75   1    20.41597686426843        16.452932097634605       0.0                     # Si
76   76   1    22.117357382854273       16.452932097634605       0.0                     # Si
77   77   1    23.818639674979835       16.452932097634605       0.0                     # Si
78   78   1    25.520020193565678       16.452932097634605       0.0                     # Si
79   79   1    27.22130248569124        16.452932097634605       0.0                     # Si
80   80   1    1.7013805185858446       16.452932097634605       0.0                     # Si
81   81   1    3.402662810711405        16.452932097634605       0.0                     # Si
82   82   1    5.10404332929725         16.452932097634605       0.0                     # Si
83   83   1    6.80532562142281         16.452932097634605       0.0                     # Si
84   84   1    8.506706140008655        16.452932097634605       0.0                     # Si
85   85   1    10.207988432134215       16.452932097634605       0.0                     # Si
86   86   1    11.90936895072006        16.452932097634605       0.0                     # Si
87   87   1    15.312031761431465       17.43519670047846        0.0                     # Si
88   88   1    17.013314053557025       17.43519670047846        0.0                     # Si
89   89   1    18.71469457214287        17.43519670047846        0.0                     # Si
90   90   1    20.41597686426843        17.43519670047846        0.0                     # Si
91   91   1    22.117357382854273       17.43519670047846        0.0                     # Si
92   92   1    23.818639674979835       17.43519670047846        0.0                     # Si
93   93   1    25.520020193565678       17.43519670047846        0.0                     # Si
94   94   1    27.22130248569124        17.43519670047846        0.0                     # Si
95   95   1    1.7013805185858446       17.43519670047846        0.0                     # Si
96   96   1    3.402662810711405        17.43519670047846        0.0                     # Si
97   97   1    5.10404332929725         17.43519670047846        0.0                     # Si
98   98   1    6.80532562142281         17.43519670047846        0.0                     # Si
99   99   1    8.506706140008655        17.43519670047846        0.0                     # Si
100  100  1    10.207988432134215       17.43519670047846        0.0                     # Si
101  101  1    11.90936895072006        17.43519670047846        0.0                     # Si
102  102  1    13.61065124284562        17.43519670047846        0.0                     # Si
103  103  1    14.4612923889084         17.92632900190039        0.0                     # Si
104  104  1    16.162672907494244       17.92632900190039        0.0                     # Si
105  105  1    17.863955199619802       17.92632900190039        0.0                     # Si
106  106  1    19.565335718205652       17.92632900190039        0.0                     # Si
107  107  1    21.26661801033121        17.92632900190039        0.0                     # Si
108  108  1    22.967998528917054       17.92632900190039        0.0                     # Si
109  109  1    24.669280821042612       17.92632900190039        0.0                     # Si
110  110  1    26.370661339628462       17.92632900190039        0.0                     # Si
111  111  1    0.8506411460627801       17.92632900190039        0.0                     # Si
112  112  1    2.552021664648625        17.92632900190039        0.0                     # Si
113  113  1    4.253303956774185        17.92632900190039        0.0                     # Si
114  114  1    5.95468447536003         17.92632900190039        0.0                     # Si
115  115  1    7.65596676748559         17.92632900190039        0.0                     # Si
116  116  1    9.357347286071436        17.92632900190039        0.0                     # Si
117  117  1    11.058629578196996       17.92632900190039        0.0                     # Si
118  118  1    12.760010096782839       17.92632900190039        0.0                     # Si
119  119  1    14.4612923889084         18.908593604744247       0.0                     # Si
120  120  1    16.162672907494244       18.908593604744247       0.0                     # Si
121  121  1    17.863955199619802       18.908593604744247       0.0                     # Si
122  122  1    19.565335718205652       18.908593604744247       0.0                     # Si
123  123  1    21.26661801033121        18.908593604744247       0.0                     # Si
124  124  1    22.967998528917054       18.908593604744247       0.0                     # Si
125  125  1    24.669280821042612       18.908593604744247       0.0                     # Si
126  126  1    26.370661339628462       18.908593604744247       0.0                     # Si
127  127  1    0.8506411460627801       18.908593604744247       0.0                     # Si
128  128  1    2.552021664648625        18.908593604744247       0.0                     # Si
129  129  1    4.253303956774185        18.908593604744247       0.0                     # Si
130  130  1    5.95468447536003         18.908593604744247       0.0                     # Si
131  131  1    7.65596676748559         18.908593604744247       0.0                     # Si
132  132  1    9.357347286071436        18.908593604744247       0.0                     # Si
133  133  1    11.058629578196996       18.908593604744247       0.0                     # Si
134  134  1    12.760010096782839       18.908593604744247       0.0                     # Si
135  135  1    13.61065124284562        19.399725906166175       0.0                     # Si
136  136  1    15.312031761431465       19.399725906166175       0.0                     # Si
137  137  1    17.013314053557025       19.399725906166175       0.0                     # Si
138  138  1    18.71469457214287        19.399725906166175       0.0                     # Si
139  139  1    20.41597686426843        19.399725906166175       0.0                     # Si
140  140  1    22.117357382854273       19.399725906166175       0.0                     # Si
141  141  1    23.818639674979835       19.399725906166175       0.0                     # Si
142  142  1    25.520020193565678       19.399725906166175       0.0                     # Si
143  143  1    27.22130248569124        19.399725906166175       0.0                     # Si
144  144  1    1.7013805185858446       19.399725906166175       0.0                     # Si
145  145  1    3.402662810711405        19.399725906166175       0.0                     # Si
146  146  1    5.10404332929725         19.399725906166175       0.0                     # Si
147  147  1    6.80532562142281         19.399725906166175       0.0                     # Si
148  148  1    8.506706140008655        19.399725906166175       0.0                     # Si
149  149  1    10.207988432134215       19.399725906166175       0.0                     # Si
150  150  1    11.90936895072006        19.399725906166175       0.0                     # Si
151  151  1    15.312031761431465       20.38199050901003        0.0                     # Si
152  152  1    17.013314053557025       20.38199050901003        0.0                     # Si
153  153  1    18.71469457214287        20.38199050901003        0.0                     # Si
154  154  1    20.41597686426843        20.38199050901003        0.0                     # Si
155  155  1    22.117357382854273       20.38199050901003        0.0                     # Si
156  156  1    23.818639674979835       20.38199050901003        0.0                     # Si
157  157  1    25.520020193565678       20.38199050901003        0.0                     # Si
158  158  1    27.22130248569124        20.38199050901003        0.0                     # Si
159  159  1    1.7013805185858446       20.38199050901003        0.0                     # Si
160  160  1    3.402662810711405        20.38199050901003        0.0                     # Si
161  161  1    5.10404332929725         20.38199050901003        0.0                     # Si
162  162  1    6.80532562142281         20.38199050901003        0.0                     # Si
163  163  1    8.506706140008655        20.38199050901003        0.0                     # Si
164  164  1    10.207988432134215       20.38199050901003        0.0                     # Si
165  165  1    11.90936895072006        20.38199050901003        0.0                     # Si
166  166  1    13.61065124284562        20.38199050901003        0.0                     # Si
167  167  1    14.4612923889084         20.873122810431962       0.0                     # Si
168  168  1    16.162672907494244       20.873122810431962       0.0                     # Si
169  169  1    17.863955199619802       20.873122810431962       0.0                     # Si
170  170  1    19.565335718205652       20.873122810431962       0.0                     # Si
171  171  1    21.26661801033121        20.873122810431962       0.0                     # Si
172  172  1    22.967998528917054       20.873122810431962       0.0                     # Si
173  173  1    24.669280821042612       20.873122810431962       0.0                     # Si
174  174  1    26.370661339628462       20.873122810431962       0.0                     # Si
175  175  1    0.8506411460627801       20.873122810431962       0.0                     # Si
176  176  1    2.552021664648625        20.873122810431962       0.0                     # Si
177  177  1    4.253303956774185        20.873122810431962       0.0                     # Si
178  178  1    5.95468447536003         20.873122810431962       0.0                     # Si
179  179  1    7.65596676748559         20.873122810431962       0.0                     # Si
180  180  1    9.357347286071436        20.873122810431962       0.0                     # Si
181  181  1    11.058629578196996       20.873122810431962       0.0                     # Si
182  182  1    12.760010096782839       20.873122810431962       0.0                     # Si
183  183  1    14.4612923889084         21.855387413275817       0.0                     # Si
184  184  1    16.162672907494244       21.855387413275817       0.0                     # Si
185  185  1    17.863955199619802       21.855387413275817       0.0                     # Si
186  186  1    19.565335718205652       21.855387413275817       0.0                     # Si
187  187  1    21.26661801033121        21.855387413275817       0.0                     # Si
188  188  1    22.967998528917054       21.855387413275817       0.0                     # Si
189  189  1    24.669280821042612       21.855387413275817       0.0                     # Si
190  190  1    26.370661339628462       21.855387413275817       0.0                     # Si
191  191  1    0.8506411460627801       21.855387413275817       0.0                     # Si
192  192  1    2.552021664648625        21.855387413275817       0.0                     # Si
193  193  1    4.253303956774185        21.855387413275817       0.0                     # Si
194  194  1    5.95468447536003         21.855387413275817       0.0                     # Si
195  195  1    7.65596676748559         21.855387413275817       0.0                     # Si
196  196  1    9.357347286071436        21.855387413275817       0.0                     # Si
197  197  1    11.058629578196996       21.855387413275817       0.0                     # Si
198  198  1    12.760010096782839       21.855387413275817       0.0                     # Si
199  199  1    13.61065124284562        22.346519714697745       0.0                     # Si
200  200  1    15.312031761431465       22.346519714697745       0.0                     # Si
201  201  1    17.013314053557025       22.346519714697745       0.0                     # Si
202  202  1    18.71469457214287        22.346519714697745       0.0                     # Si
203  203  1    20.41597686426843        22.346519714697745       0.0                     # Si
204  204  1    22.117357382854273       22.346519714697745       0.0                     # Si
205  205  1    23.818639674979835       22.346519714697745       0.0                     # Si
206  206  1    25.520020193565678       22.346519714697745       0.0                     # Si
207  207  1    27.22130248569124        22.346519714697745       0.0                     # Si
208  208  1    1.7013805185858446       22.346519714697745       0.0                     # Si
209  209  1    3.402662810711405        22.346519714697745       0.0                     # Si
210  210  1    5.10404332929725         22.346519714697745       0.0                     # Si
211  211  1    6.80532562142281         22.346519714697745       0.0                     # Si
212  212  1    8.506706140008655        22.346519714697745       0.0                     # Si
213  213  1    10.207988432134215       22.346519714697745       0.0                     # Si
214  214  1    11.90936895072006        22.346519714697745       0.0                     # Si
215  215  1    15.312031761431465       23.328784317541604       0.0                     # Si
216  216  1    17.013314053557025       23.328784317541604       0.0                     # Si
217  217  1    18.71469457214287        23.328784317541604       0.0                     # Si
218  218  1    20.41597686426843        23.328784317541604       0.0                     # Si
219  219  1    22.117357382854273       23.328784317541604       0.0                     # Si
220  220  1    23.818639674979835       23.328784317541604       0.0                     # Si
221  221  1    25.520020193565678       23.328784317541604       0.0                     # Si
222  222  1    27.22130248569124        23.328784317541604       0.0                     # Si
223  223  1    1.7013805185858446       23.328784317541604       0.0                     # Si
224  224  1    3.402662810711405        23.328784317541604       0.0                     # Si
225  225  1    5.10404332929725         23.328784317541604       0.0                     # Si
226  226  1    6.80532562142281         23.328784317541604       0.0                     # Si
227  227  1    8.506706140008655        23.328784317541604       0.0                     # Si
228  228  1    10.207988432134215       23.328784317541604       0.0                     # Si
229  229  1    11.90936895072006        23.328784317541604       0.0                     # Si
230  230  1    13.61065124284562        23.328784317541604       0.0                     # Si
231  231  1    14.4612923889084         0.24556615071096424      0.0                     # Si
232  232  1    16.162672907494244       0.24556615071096424      0.0                     # Si
233  233  1    17.863955199619802       0.24556615071096424      0.0                     # Si
234  234  1    19.565335718205652       0.24556615071096424      0.0                     # Si
235  235  1    21.26661801033121        0.24556615071096424      0.0                     # Si
236  236  1    22.967998528917054       0.24556615071096424      0.0                     # Si
237  237  1    24.669280821042612       0.24556615071096424      0.0                     # Si
238  238  1    26.370661339628462       0.24556615071096424      0.0                     # Si
239  239  1    0.8506411460627801       0.24556615071096424      0.0                     # Si
240  240  1    2.552021664648625        0.24556615071096424      0.0                     # Si
241  241  1    4.253303956774185        0.24556615071096424      0.0                     # Si
242  242  1    5.95468447536003         0.24556615071096424      0.0                     # Si
243  243  1    7.65596676748559         0.24556615071096424      0.0                     # Si
244  244  1    9.357347286071436        0.24556615071096424      0.0                     # Si
245  245  1    11.058629578196996       0.24556615071096424      0.0                     # Si
246  246  1    12.760010096782839       0.24556615071096424      0.0                     # Si
247  247  1    14.4612923889084         1.2278307535548212       0.0                     # Si
248  248  1    16.162672907494244       1.2278307535548212       0.0                     # Si
249  249  1    17.863955199619802       1.2278307535548212       0.0                     # Si
250  250  1    19.565335718205652       1.2278307535548212       0.0                     # Si
251  251  1    21.26661801033121        1.2278307535548212       0.0                     # Si
252  252  1    22.967998528917054       1.2278307535548212       0.0                     # Si
253  253  1    24.669280821042612       1.2278307535548212       0.0                     # Si
254  254  1    26.370661339628462       1.2278307535548212       0.0                     # Si
255  255  1    0.8506411460627801       1.2278307535548212       0.0                     # Si
256  256  1    2.552021664648625        1.2278307535548212       0.0                     # Si
257  257  1    4.253303956774185        1.2278307535548212       0.0                     # Si
258  258  1    5.95468447536003         1.2278307535548212       0.0                     # Si
259  259  1    7.65596676748559         1.2278307535548212       0.0                     # Si
260  260  1    9.357347286071436        1.2278307535548212       0.0                     # Si
261  261  1    11.058629578196996       1.2278307535548212       0.0                     # Si
262  262  1    12.760010096782839       1.2278307535548212       0.0                     # Si
263  263  1    13.61065124284562        1.7189630549767496       0.0                     # Si
264  264  1    15.312031761431465       1.7189630549767496       0.0                     # Si
265  265  1    17.013314053557025       1.7189630549767496       0.0                     # Si
266  266  1    18.71469457214287        1.7189630549767496       0.0                     # Si
267  267  1    20.41597686426843        1.7189630549767496       0.0                     # Si
268  268  1    22.117357382854273       1.7189630549767496       0.0                     # Si
269  269  1    23.818639674979835       1.7189630549767496       0.0                     # Si
270  270  1    25.520020193565678       1.7189630549767496       0.0                     # Si
271  271  1    27.22130248569124        1.7189630549767496       0.0                     # Si
272  272  1    1.7013805185858446       1.7189630549767496       0.0                     # Si
273  273  1    3.402662810711405        1.7189630549767496       0.0                     # Si
274  274  1    5.10404332929725         1.7189630549767496       0.0                     # Si
275  275  1    6.80532562142281         1.7189630549767496       0.0                     # Si
276  276  1    8.506706140008655        1.7189630549767496       0.0                     # Si
277  277  1    10.207988432134215       1.7189630549767496       0.0                     # Si
278  278  1    11.90936895072006        1.7189630549767496       0.0                     # Si
279  279  1    15.312031761431465       2.7012276578206067       0.0                     # Si
280  280  1    17.013314053557025       2.7012276578206067       0.0                     # Si
281  281  1    18.71469457214287        2.7012276578206067       0.0                     # Si
282  282  1    20.41597686426843        2.7012276578206067       0.0                     # Si
283  283  1    22.117357382854273       2.7012276578206067       0.0                     # Si
284  284  1    23.818639674979835       2.7012276578206067       0.0                     # Si
285  285  1    25.520020193565678       2.7012276578206067       0.0                     # Si
286  286  1    27.22130248569124        2.7012276578206067       0.0                     # Si
287  287  1    1.7013805185858446       2.7012276578206067       0.0                     # Si
288  288  1    3.402662810711405        2.7012276578206067       0.0                     # Si
289  289  1    5.10404332929725         2.7012276578206067       0.0                     # Si
290  290  1    6.80532562142281         2.7012276578206067       0.0                     # Si
291  291  1    8.506706140008655        2.7012276578206067       0.0                     # Si
292  292  1    10.207988432134215       2.7012276578206067       0.0                     # Si
293  293  1    11.90936895072006        2.7012276578206067       0.0                     # Si
294  294  1    13.61065124284562        2.7012276578206067       0.0                     # Si
295  295  1    14.4612923889084         3.1923599592425353       0.0                     # Si
296  296  1    16.162672907494244       3.1923599592425353       0.0                     # Si
297  297  1    17.863955199619802       3.1923599592425353       0.0                     # Si
298  298  1    19.565335718205652       3.1923599592425353       0.0                     # Si
299  299  1    21.26661801033121        3.1923599592425353       0.0                     # Si
300  300  1    22.967998528917054       3.1923599592425353       0.0                     # Si
301  301  1    24.669280821042612       3.1923599592425353       0.0                     # Si
302  302  1    26.370661339628462       3.1923599592425353       0.0                     # Si
303  303  1    0.8506411460627801       3.1923599592425353       0.0                     # Si
304  304  1    2.552021664648625        3.1923599592425353       0.0                     # Si
305  305  1    4.253303956774185        3.1923599592425353       0.0                     # Si
306  306  1    5.95468447536003         3.1923599592425353       0.0                     # Si
307  307  1    7.65596676748559         3.1923599592425353       0.0                     # Si
308  308  1    9.357347286071436        3.1923599592425353       0.0                     # Si
309  309  1    11.058629578196996       3.1923599592425353       0.0                     # Si
310  310  1    12.760010096782839       3.1923599592425353       0.0                     # Si
311  311  1    14.4612923889084         4.174624562086392        0.0                     # Si
312  312  1    16.162672907494244       4.174624562086392        0.0                     # Si
313  313  1    17.863955199619802       4.174624562086392        0.0                     # Si
314  314  1    19.565335718205652       4.174624562086392        0.0                     # Si