DATA FILE Produced from netmc results (cf David Morley)
286 atoms
429 bonds
858 angles
0 dihedrals
0 impropers
1 atom types
1 bond types
1 angle types
0 dihedral types
0 improper types
0.00000 20.69511884 xlo xhi
0.00000 18.09086936 ylo yhi

# Pair Coeffs
#
# 1  Si

# Bond Coeffs
# 
# 1  Si-Si

# Angle Coeffs
# 
# 1  Si-Si-Si

 Masses

1 32.01000 # Si

 Atoms # molecular

1    1    1    11.20982575              10.30174505              0.0                     # Si
2    2    1    12.93446794              10.30174505              0.0                     # Si
3    3    1    14.65901056              10.30174505              0.0                     # Si
4    4    1    16.38365275              10.30174505              0.0                     # Si
5    5    1    18.10819538              10.30174505              0.0                     # Si
6    6    1    19.83283757              10.30174505              0.0                     # Si
7    7    1    0.86227131               10.30174505              0.0                     # Si
8    8    1    2.5869135                10.30174505              0.0                     # Si
9    9    1    4.31145612               10.30174505              0.0                     # Si
10   10   1    6.03609832               10.30174505              0.0                     # Si
11   11   1    7.76064094               10.30174505              0.0                     # Si
12   12   1    10.34755444              10.8042692               0.0                     # Si
13   13   1    12.07219663              10.8042692               0.0                     # Si
14   14   1    13.79673925              10.8042692               0.0                     # Si
15   15   1    15.52138144              10.8042692               0.0                     # Si
16   16   1    17.24592407              10.8042692               0.0                     # Si
17   17   1    18.97056626              10.8042692               0.0                     # Si
18   18   1    20.69510888              10.8042692               0.0                     # Si
19   19   1    1.72464219               10.8042692               0.0                     # Si
20   20   1    3.44918481               10.8042692               0.0                     # Si
21   21   1    5.173827                 10.8042692               0.0                     # Si
22   22   1    6.89836963               10.8042692               0.0                     # Si
23   23   1    8.62301182               10.8042692               0.0                     # Si
24   24   1    12.07219663              11.8093175               0.0                     # Si
25   25   1    13.79673925              11.8093175               0.0                     # Si
26   26   1    15.52138144              11.8093175               0.0                     # Si
27   27   1    17.24592407              11.8093175               0.0                     # Si
28   28   1    18.97056626              11.8093175               0.0                     # Si
29   29   1    20.69510888              11.8093175               0.0                     # Si
30   30   1    1.72464219               11.8093175               0.0                     # Si
31   31   1    3.44918481               11.8093175               0.0                     # Si
32   32   1    5.173827                 11.8093175               0.0                     # Si
33   33   1    6.89836963               11.8093175               0.0                     # Si
34   34   1    8.62301182               11.8093175               0.0                     # Si
35   35   1    10.34755444              11.8093175               0.0                     # Si
36   36   1    11.20982575              12.31184165              0.0                     # Si
37   37   1    12.93446794              12.31184165              0.0                     # Si
38   38   1    14.65901056              12.31184165              0.0                     # Si
39   39   1    16.38365275              12.31184165              0.0                     # Si
40   40   1    18.10819538              12.31184165              0.0                     # Si
41   41   1    19.83283757              12.31184165              0.0                     # Si
42   42   1    0.86227131               12.31184165              0.0                     # Si
43   43   1    2.5869135                12.31184165              0.0                     # Si
44   44   1    4.31145612               12.31184165              0.0                     # Si
45   45   1    6.03609832               12.31184165              0.0                     # Si
46   46   1    7.76064094               12.31184165              0.0                     # Si
47   47   1    9.48528313               12.31184165              0.0                     # Si
48   48   1    11.20982575              13.31688995              0.0                     # Si
49   49   1    12.93446794              13.31688995              0.0                     # Si
50   50   1    14.65901056              13.31688995              0.0                     # Si
51   51   1    16.38365275              13.31688995              0.0                     # Si
52   52   1    18.10819538              13.31688995              0.0                     # Si
53   53   1    19.83283757              13.31688995              0.0                     # Si
54   54   1    0.86227131               13.31688995              0.0                     # Si
55   55   1    2.5869135                13.31688995              0.0                     # Si
56   56   1    4.31145612               13.31688995              0.0                     # Si
57   57   1    6.03609832               13.31688995              0.0                     # Si
58   58   1    7.76064094               13.31688995              0.0                     # Si
59   59   1    9.48528313               13.31688995              0.0                     # Si
60   60   1    10.34755444              13.8194141               0.0                     # Si
61   61   1    12.07219663              13.8194141               0.0                     # Si
62   62   1    13.79673925              13.8194141               0.0                     # Si
63   63   1    15.52138144              13.8194141               0.0                     # Si
64   64   1    17.24592407              13.8194141               0.0                     # Si
65   65   1    18.97056626              13.8194141               0.0                     # Si
66   66   1    20.69510888              13.8194141               0.0                     # Si
67   67   1    1.72464219               13.8194141               0.0                     # Si
68   68   1    3.44918481               13.8194141               0.0                     # Si
69   69   1    5.173827                 13.8194141               0.0                     # Si
70   70   1    6.89836963               13.8194141               0.0                     # Si
71   71   1    8.62301182               13.8194141               0.0                     # Si
72   72   1    12.07219663              14.82446239              0.0                     # Si
73   73   1    13.79673925              14.82446239              0.0                     # Si
74   74   1    15.52138144              14.82446239              0.0                     # Si
75   75   1    17.24592407              14.82446239              0.0                     # Si
76   76   1    18.97056626              14.82446239              0.0                     # Si
77   77   1    20.69510888              14.82446239              0.0                     # Si
78   78   1    1.72464219               14.82446239              0.0                     # Si
79   79   1    3.44918481               14.82446239              0.0                     # Si
80   80   1    5.173827                 14.82446239              0.0                     # Si
81   81   1    6.89836963               14.82446239              0.0                     # Si
82   82   1    8.62301182               14.82446239              0.0                     # Si
83   83   1    10.34755444              14.82446239              0.0                     # Si
84   84   1    11.20982575              15.32698654              0.0                     # Si
85   85   1    12.93446794              15.32698654              0.0                     # Si
86   86   1    14.65901056              15.32698654              0.0                     # Si
87   87   1    16.38365275              15.32698654              0.0                     # Si
88   88   1    18.10819538              15.32698654              0.0                     # Si
89   89   1    19.83283757              15.32698654              0.0                     # Si
90   90   1    0.86227131               15.32698654              0.0                     # Si
91   91   1    2.5869135                15.32698654              0.0                     # Si
92   92   1    4.31145612               15.32698654              0.0                     # Si
93   93   1    6.03609832               15.32698654              0.0                     # Si
94   94   1    7.76064094               15.32698654              0.0                     # Si
95   95   1    9.48528313               15.32698654              0.0                     # Si
96   96   1    11.20982575              16.33203484              0.0                     # Si
97   97   1    12.93446794              16.33203484              0.0                     # Si
98   98   1    14.65901056              16.33203484              0.0                     # Si
99   99   1    16.38365275              16.33203484              0.0                     # Si
100  100  1    18.10819538              16.33203484              0.0                     # Si
101  101  1    19.83283757              16.33203484              0.0                     # Si
102  102  1    0.86227131               16.33203484              0.0                     # Si
103  103  1    2.5869135                16.33203484              0.0                     # Si
104  104  1    4.31145612               16.33203484              0.0                     # Si
105  105  1    6.03609832               16.33203484              0.0                     # Si
106  106  1    7.76064094               16.33203484              0.0                     # Si
107  107  1    9.48528313               16.33203484              0.0                     # Si
108  108  1    10.34755444              16.83455899              0.0                     # Si
109  109  1    12.07219663              16.83455899              0.0                     # Si
110  110  1    13.79673925              16.83455899              0.0                     # Si
111  111  1    15.52138144              16.83455899              0.0                     # Si
112  112  1    17.24592407              16.83455899              0.0                     # Si
113  113  1    18.97056626              16.83455899              0.0                     # Si
114  114  1    20.69510888              16.83455899              0.0                     # Si
115  115  1    1.72464219               16.83455899              0.0                     # Si
116  116  1    3.44918481               16.83455899              0.0                     # Si
117  117  1    5.173827                 16.83455899              0.0                     # Si
118  118  1    6.89836963               16.83455899              0.0                     # Si
119  119  1    8.62301182               16.83455899              0.0                     # Si
120  120  1    12.07219663              17.83960729              0.0                     # Si
121  121  1    13.79673925              17.83960729              0.0                     # Si
122  122  1    15.52138144              17.83960729              0.0                     # Si
123  123  1    17.24592407              17.83960729              0.0                     # Si
124  124  1    18.97056626              17.83960729              0.0                     # Si
125  125  1    20.69510888              17.83960729              0.0                     # Si
126  126  1    1.72464219               17.83960729              0.0                     # Si
127  127  1    3.44918481               17.83960729              0.0                     # Si
128  128  1    5.173827                 17.83960729              0.0                     # Si
129  129  1    6.89836963               17.83960729              0.0                     # Si
130  130  1    8.62301182               17.83960729              0.0                     # Si
131  131  1    10.34755444              17.83960729              0.0                     # Si
132  132  1    11.20982575              0.25126207               0.0                     # Si
133  133  1    12.93446794              0.25126207               0.0                     # Si
134  134  1    14.65901056              0.25126207               0.0                     # Si
135  135  1    16.38365275              0.25126207               0.0                     # Si
136  136  1    18.10819538              0.25126207               0.0                     # Si
137  137  1    19.83283757              0.25126207               0.0                     # Si
138  138  1    0.86227131               0.25126207               0.0                     # Si
139  139  1    2.5869135                0.25126207               0.0                     # Si
140  140  1    4.31145612               0.25126207               0.0                     # Si
141  141  1    6.03609832               0.25126207               0.0                     # Si
142  142  1    7.76064094               0.25126207               0.0                     # Si
143  143  1    9.48528313               0.25126207               0.0                     # Si
144  144  1    11.20982575              1.25631037               0.0                     # Si
145  145  1    12.93446794              1.25631037               0.0                     # Si
146  146  1    14.65901056              1.25631037               0.0                     # Si
147  147  1    16.38365275              1.25631037               0.0                     # Si
148  148  1    18.10819538              1.25631037               0.0                     # Si
149  149  1    19.83283757              1.25631037               0.0                     # Si
150  150  1    0.86227131               1.25631037               0.0                     # Si
151  151  1    2.5869135                1.25631037               0.0                     # Si
152  152  1    4.31145612               1.25631037               0.0                     # Si
153  153  1    6.03609832               1.25631037               0.0                     # Si
154  154  1    7.76064094               1.25631037               0.0                     # Si
155  155  1    9.48528313               1.25631037               0.0                     # Si
156  156  1    10.34755444              1.75883452               0.0                     # Si
157  157  1    12.07219663              1.75883452               0.0                     # Si
158  158  1    13.79673925              1.75883452               0.0                     # Si
159  159  1    15.52138144              1.75883452               0.0                     # Si
160  160  1    17.24592407              1.75883452               0.0                     # Si
161  161  1    18.97056626              1.75883452               0.0                     # Si
162  162  1    20.69510888              1.75883452               0.0                     # Si
163  163  1    1.72464219               1.75883452               0.0                     # Si
164  164  1    3.44918481               1.75883452               0.0                     # Si
165  165  1    5.173827                 1.75883452               0.0                     # Si
166  166  1    6.89836963               1.75883452               0.0                     # Si
167  167  1    8.62301182               1.75883452               0.0                     # Si
168  168  1    12.07219663              2.76388282               0.0                     # Si
169  169  1    13.79673925              2.76388282               0.0                     # Si
170  170  1    15.52138144              2.76388282               0.0                     # Si
171  171  1    17.24592407              2.76388282               0.0                     # Si
172  172  1    18.97056626              2.76388282               0.0                     # Si
173  173  1    20.69510888              2.76388282               0.0                     # Si
174  174  1    1.72464219               2.76388282               0.0                     # Si
175  175  1    3.44918481               2.76388282               0.0                     # Si
176  176  1    5.173827                 2.76388282               0.0                     # Si
177  177  1    6.89836963               2.76388282               0.0                     # Si
178  178  1    8.62301182               2.76388282               0.0                     # Si
179  179  1    10.34755444              2.76388282               0.0                     # Si
180  180  1    11.20982575              3.26640697               0.0                     # Si
181  181  1    12.93446794              3.26640697               0.0                     # Si
182  182  1    14.65901056              3.26640697               0.0                     # Si
183  183  1    16.38365275              3.26640697               0.0                     # Si
184  184  1    18.10819538              3.26640697               0.0                     # Si
185  185  1    19.83283757              3.26640697               0.0                     # Si
186  186  1    0.86227131               3.26640697               0.0                     # Si
187  187  1    2.5869135                3.26640697               0.0                     # Si
188  188  1    4.31145612               3.26640697               0.0                     # Si
189  189  1    6.03609832               3.26640697               0.0                     # Si
190  190  1    7.76064094               3.26640697               0.0                     # Si
191  191  1    9.48528313               3.26640697               0.0                     # Si
192  192  1    11.20982575              4.27145527               0.0                     # Si
193  193  1    12.93446794              4.27145527               0.0                     # Si
194  194  1    14.65901056              4.27145527               0.0                     # Si
195  195  1    16.38365275              4.27145527               0.0                     # Si
196  196  1    18.10819538              4.27145527               0.0                     # Si
197  197  1    19.83283757              4.27145527               0.0                     # Si
198  198  1    0.86227131               4.27145527               0.0                     # Si
199  199  1    2.5869135                4.27145527               0.0                     # Si
200  200  1    4.31145612               4.27145527               0.0                     # Si
201  201  1    6.03609832               4.27145527               0.0                     # Si
202  202  1    7.76064094               4.27145527               0.0                     # Si
203  203  1    9.48528313               4.27145527               0.0                     # Si
204  204  1    10.34755444              4.77397941               0.0                     # Si
205  205  1    12.07219663              4.77397941               0.0                     # Si
206  206  1    13.79673925              4.77397941               0.0                     # Si
207  207  1    15.52138144              4.77397941               0.0                     # Si
208  208  1    17.24592407              4.77397941               0.0                     # Si
209  209  1    18.97056626              4.77397941               0.0                     # Si
210  210  1    20.69510888              4.77397941               0.0                     # Si
211  211  1    1.72464219               4.77397941               0.0                     # Si
212  212  1    3.44918481               4.77397941               0.0                     # Si
213  213  1    5.173827                 4.77397941               0.0                     # Si
214  214  1    6.89836963               4.77397941               0.0                     # Si
215  215  1    8.62301182               4.77397941               0.0                     # Si
216  216  1    12.07219663              5.77902771               0.0                     # Si
217  217  1    13.79673925              5.77902771               0.0                     # Si
218  218  1    15.52138144              5.77902771               0.0                     # Si
219  219  1    17.24592407              5.77902771               0.0                     # Si
220  220  1    18.97056626              5.77902771               0.0                     # Si
221  221  1    20.69510888              5.77902771               0.0                     # Si
222  222  1    1.72464219               5.77902771               0.0                     # Si
223  223  1    3.44918481               5.77902771               0.0                     # Si
224  224  1    5.173827                 5.77902771               0.0                     # Si
225  225  1    6.89836963               5.77902771               0.0                     # Si
226  226  1    8.62301182               5.77902771               0.0                     # Si
227  227  1    10.34755444              5.77902771               0.0                     # Si
228  228  1    11.20982575              6.28155186               0.0                     # Si
229  229  1    12.93446794              6.28155186               0.0                     # Si
230  230  1    14.65901056              6.28155186               0.0                     # Si
231  231  1    16.38365275              6.28155186               0.0                     # Si
232  232  1    18.10819538              6.28155186               0.0                     # Si
233  233  1    19.83283757              6.28155186               0.0                     # Si
234  234  1    0.86227131               6.28155186               0.0                     # Si
235  235  1    2.5869135                6.28155186               0.0                     # Si
236  236  1    4.31145612               6.28155186               0.0                     # Si
237  237  1    6.03609832               6.28155186               0.0                     # Si
238  238  1    7.76064094               6.28155186               0.0                     # Si
239  239  1    9.48528313               6.28155186               0.0                     # Si
240  240  1    11.20982575              7.28660016               0.0                     # Si
241  241  1    12.93446794              7.28660016               0.0                     # Si
242  242  1    14.65901056              7.28660016               0.0                     # Si
243  243  1    16.38365275              7.28660016               0.0                     # Si
244  244  1    18.10819538              7.28660016               0.0                     # Si
245  245  1    19.83283757              7.28660016               0.0                     # Si
246  246  1    0.86227131               7.28660016               0.0                     # Si
247  247  1    2.5869135                7.28660016               0.0                     # Si
248  248  1    4.31145612               7.28660016               0.0                     # Si
249  249  1    6.03609832               7.28660016               0.0                     # Si
250  250  1    7.76064094               7.28660016               0.0                     # Si
251  251  1    9.48528313               7.28660016               0.0                     # Si
252  252  1    10.34755444              7.78912431               0.0                     # Si
253  253  1    12.07219663              7.78912431               0.0                     # Si
254  254  1    13.79673925              7.78912431               0.0                     # Si
255  255  1    15.52138144              7.78912431               0.0                     # Si
256  256  1    17.24592407              7.78912431               0.0                     # Si
257  257  1    18.97056626              7.78912431               0.0                     # Si
258  258  1    20.69510888              7.78912431               0.0                     # Si
259  259  1    1.72464219               7.78912431               0.0                     # Si
260  260  1    3.44918481               7.78912431               0.0                     # Si
261  261  1    5.173827                 7.78912431               0.0                     # Si
262  262  1    6.89836963               7.78912431               0.0                     # Si
263  263  1    8.62301182               7.78912431               0.0                     # Si
264  264  1    12.07219663              8.79417261               0.0                     # Si
265  265  1    13.79673925              8.79417261               0.0                     # Si
266  266  1    15.52138144              8.79417261               0.0                     # Si
267  267  1    17.24592407              8.79417261               0.0                     # Si
268  268  1    18.97056626              8.79417261               0.0                     # Si
269  269  1    20.69510888              8.79417261               0.0                     # Si
270  270  1    1.72464219               8.79417261               0.0                     # Si
271  271  1    3.44918481               8.79417261               0.0                     # Si
272  272  1    5.173827                 8.79417261               0.0                     # Si
273  273  1    6.89836963               8.79417261               0.0                     # Si
274  274  1    8.62301182               8.79417261               0.0                     # Si
275  275  1    10.34755444              8.79417261               0.0                     # Si
276  276  1    11.20982575              9.29669676               0.0                     # Si
277  277  1    12.93446794              9.29669676               0.0                     # Si
278  278  1    14.65901056              9.29669676               0.0                     # Si
279  279  1    16.38365275              9.29669676               0.0                     # Si
280  280  1    18.10819538              9.29669676               0.0                     # Si
281  281  1    19.83283757              9.29669676               0.0                     # Si
282  282  1    0.86227131               9.29669676               0.0                     # Si
283  283  1    2.5869135                9.29669676               0.0                     # Si
284  284  1    4.31145612               9.29669676               0.0                     # Si
285  285  1    6.03609832               9.29669676               0.0                     # Si
286  286  1    7.76064094               9.29669676               0.0                     # Si

 Bonds

1 1 1 12
2 1 1 13
3 1 1 276
4 1 2 13
5 1 2 14
6 1 2 277
7 1 3 14
8 1 3 15
9 1 3 278
10 1 4 15
11 1 4 16
12 1 4 279
13 1 5 16
14 1 5 17
15 1 5 280
16 1 6 17
17 1 6 18
18 1 6 281
19 1 7 18
20 1 7 19
21 1 7 282
22 1 8 19
23 1 8 20
24 1 8 283
25 1 9 20
26 1 9 21
27 1 9 284
28 1 10 21
29 1 10 22
30 1 10 285
31 1 11 22
32 1 11 23
33 1 11 286
34 1 12 35
35 1 12 23
36 1 13 24
37 1 14 25
38 1 15 26
39 1 16 27
40 1 17 28
41 1 18 29
42 1 19 30
43 1 20 31
44 1 21 32
45 1 22 33
46 1 23 34
47 1 24 36
48 1 24 37
49 1 25 37
50 1 25 38
51 1 26 38
52 1 26 39
53 1 27 39
54 1 27 40
55 1 28 40
56 1 28 41
57 1 29 41
58 1 29 42
59 1 30 42
60 1 30 43
61 1 31 43
62 1 31 44
63 1 32 44
64 1 32 45
65 1 33 45
66 1 33 46
67 1 34 46
68 1 34 47
69 1 35 47
70 1 35 36
71 1 36 48
72 1 37 49
73 1 38 50
74 1 39 51
75 1 40 52
76 1 41 53
77 1 42 54
78 1 43 55
79 1 44 56
80 1 45 57
81 1 46 58
82 1 47 59
83 1 48 60
84 1 48 61
85 1 49 61
86 1 49 62
87 1 50 62
88 1 50 63
89 1 51 63
90 1 51 64
91 1 52 64
92 1 52 65
93 1 53 65
94 1 53 66
95 1 54 66
96 1 54 67
97 1 55 67
98 1 55 68
99 1 56 68
100 1 56 69
101 1 57 69
102 1 57 70
103 1 58 70
104 1 58 71
105 1 59 71
106 1 59 60
107 1 60 83
108 1 61 72
109 1 62 73
110 1 63 74
111 1 64 75
112 1 65 76
113 1 66 77
114 1 67 78
115 1 68 79
116 1 69 80
117 1 70 81
118 1 71 82
119 1 72 84
120 1 72 85
121 1 73 85
122 1 73 86
123 1 74 86
124 1 74 87
125 1 75 87
126 1 75 88
127 1 76 88
128 1 76 89
129 1 77 89
130 1 77 90
131 1 78 90
132 1 78 91
133 1 79 91
134 1 79 92
135 1 80 92
136 1 80 93
137 1 81 93
138 1 81 94
139 1 82 94
140 1 82 95
141 1 83 95
142 1 83 84
143 1 84 96
144 1 85 97
145 1 86 98
146 1 87 99
147 1 88 100
148 1 89 101
149 1 90 102
150 1 91 103
151 1 92 104
152 1 93 105
153 1 94 106
154 1 95 107
155 1 96 108
156 1 96 109
157 1 97 109
158 1 97 110
159 1 98 110
160 1 98 111
161 1 99 111
162 1 99 112
163 1 100 112
164 1 100 113
165 1 101 113
166 1 101 114
167 1 102 114
168 1 102 115
169 1 103 115
170 1 103 116
171 1 104 116
172 1 104 117
173 1 105 117
174 1 105 118
175 1 106 118
176 1 106 119
177 1 107 119
178 1 107 108
179 1 108 131
180 1 109 120
181 1 110 121
182 1 111 122
183 1 112 123
184 1 113 124
185 1 114 125
186 1 115 126
187 1 116 127
188 1 117 128
189 1 118 129
190 1 119 130
191 1 120 132
192 1 120 133
193 1 121 133
194 1 121 134
195 1 122 134
196 1 122 135
197 1 123 135
198 1 123 136
199 1 124 136
200 1 124 137
201 1 125 137
202 1 125 138
203 1 126 138
204 1 126 139
205 1 127 139
206 1 127 140
207 1 128 140
208 1 128 141
209 1 129 141
210 1 129 142
211 1 130 142
212 1 130 143
213 1 131 143
214 1 131 132
215 1 132 144
216 1 133 145
217 1 134 146
218 1 135 147
219 1 136 148
220 1 137 149
221 1 138 150
222 1 139 151
223 1 140 152
224 1 141 153
225 1 142 154
226 1 143 155