LAMMPS data file via write_data, version 22 Jul 2025, timestep = 92, units = electron

286 atoms
1 atom types
429 bonds
1 bond types
858 angles
1 angle types

0.044589944794383045 20.667725540511682 xlo xhi
-0.04527664646679153 17.982667761118897 ylo yhi
-0.5 0.5 zlo zhi

Masses

1 28.0855

Bond Coeffs # harmonic

1 0.8 1

Angle Coeffs # cosine/squared

1 0.2 120

Atoms # molecular

1 1 1 10.907553727235241 10.233232973414461 0 0 0 0
2 2 1 12.760192915354697 10.21498781331299 0 0 0 0
3 3 1 14.547952738234757 10.216324715320665 0 0 0 0
4 4 1 16.31033612750431 10.217464123562545 0 0 0 0
5 5 1 18.061586986607043 10.218091071147903 0 0 0 0
6 6 1 19.8084353576159 10.218288132941723 0 0 0 0
7 7 1 0.9321481320220028 10.218091073932436 0 0 0 0
8 8 1 2.6833989870909636 10.2174641196993 0 0 0 0
9 9 1 4.445782375208666 10.2163247134506 0 0 0 0
10 10 1 6.2335422254076915 10.214987825747906 0 0 0 0
11 11 1 8.086181337699752 10.233232951269988 0 0 0 0
12 12 1 10.045705105633536 10.84926643399971 0 0 0 0
13 13 1 11.871325269635884 10.721419317521088 0 0 0 0
14 14 1 13.667166453939387 10.715395313229642 0 0 0 0
15 15 1 15.434688533587357 10.716056165139852 0 0 0 0
16 16 1 17.18836203308783 10.716962775682005 0 0 0 0
17 17 1 18.93570301320075 10.717466544767683 0 0 0 0
18 18 1 0.05803212495530019 10.717466544176402 0 1 0 0
19 19 1 1.8053731046996904 10.716962779122529 0 0 0 0
20 20 1 3.559046614753936 10.716056156750914 0 0 0 0
21 21 1 5.326568672923928 10.715395328644219 0 0 0 0
22 22 1 7.122409864944124 10.721419305035546 0 0 0 0
23 23 1 8.948030082711837 10.849266421385177 0 0 0 0
24 24 1 11.955484091175341 11.733008220482374 0 0 0 0
25 25 1 13.69877085102374 11.71430170415499 0 0 0 0
26 26 1 15.447916136225833 11.713155568457776 0 0 0 0
27 27 1 17.19398446516914 11.714327092319758 0 0 0 0
28 28 1 18.937280628188283 11.71515720510875 0 0 0 0
29 29 1 0.056454510277397674 11.715157202032806 0 1 0 0
30 30 1 1.7997506762727957 11.71432709122751 0 0 0 0
31 31 1 3.545819016976302 11.71315557631852 0 0 0 0
32 32 1 5.294964266285929 11.714301697977849 0 0 0 0
33 33 1 7.038251068259288 11.733008209999612 0 0 0 0
34 34 1 8.71789952845919 11.824853735545446 0 0 0 0
35 35 1 10.275835601831453 11.82485368230977 0 0 0 0
36 36 1 11.147698200107031 12.265969781719027 0 0 0 0
37 37 1 12.848934849847245 12.220375219140626 0 0 0 0
38 38 1 14.58489715560461 12.213266756613212 0 0 0 0
39 39 1 16.326826387931202 12.213528726817582 0 0 0 0
40 40 1 18.068112643561175 12.214574857543706 0 0 0 0
41 41 1 19.808435356261064 12.214999053456696 0 0 0 0
42 42 1 0.9256224807792659 12.214574855462779 0 0 0 0
43 43 1 2.6669087310023643 12.213528731223887 0 0 0 0
44 44 1 4.408837968745729 12.21326675320626 0 0 0 0
45 45 1 6.144800276772449 12.220375214213263 0 0 0 0
46 46 1 7.8460369207742975 12.26596979819606 0 0 0 0
47 47 1 9.496867534140616 12.356050081247458 0 0 0 0
48 48 1 11.1851531528383 13.269611614019848 0 0 0 0
49 49 1 12.884278054793215 13.230161405971755 0 0 0 0
50 50 1 14.606311909451517 13.216874155489888 0 0 0 0
51 51 1 16.3381590824343 13.214387701861934 0 0 0 0
52 52 1 18.07297417907856 13.21459716649382 0 0 0 0
53 53 1 19.808435358427538 13.214863645813473 0 0 0 0
54 54 1 0.9207609486881045 13.214597171134464 0 0 0 0
55 55 1 2.6555760320270374 13.214387698484384 0 0 0 0
56 56 1 4.387423232443894 13.216874148810453 0 0 0 0
57 57 1 6.109457068345486 13.230161425214211 0 0 0 0
58 58 1 7.8085819647841825 13.269611583989116 0 0 0 0
59 59 1 9.496867566532513 13.318389370547388 0 0 0 0
60 60 1 10.346045407405605 13.792111803375747 0 0 0 0
61 61 1 12.045651498062176 13.74832325167702 0 0 0 0
62 62 1 13.75560450730125 13.723163573958033 0 0 0 0
63 63 1 15.479186305351364 13.71601406704404 0 0 0 0
64 64 1 17.20937941747791 13.715035869513157 0 0 0 0
65 65 1 18.94190167103824 13.715286828840863 0 0 0 0
66 66 1 0.05183347471195532 13.715286829333511 0 1 0 0
67 67 1 1.7843557300406232 13.715035870646764 0 0 0 0
68 68 1 3.5145488461379397 13.716014064279376 0 0 0 0
69 69 1 5.2381306411592385 13.723163579446036 0 0 0 0
70 70 1 6.948083637207943 13.748323247166212 0 0 0 0
71 71 1 8.647689762276686 13.792111790012013 0 0 0 0
72 72 1 12.060945758816077 14.74919716646768 0 0 0 0
73 73 1 13.771770041596444 14.728606292492275 0 0 0 0
74 74 1 15.491023497553506 14.720106268613659 0 0 0 0
75 75 1 17.2161253791932 14.717821068826527 0 0 0 0
76 76 1 18.94405621051193 14.717515491547777 0 0 0 0
77 77 1 0.049678938328636235 14.71751548654181 0 1 0 0
78 78 1 1.7776097793785703 14.717821067373057 0 0 0 0
79 79 1 3.5027116541645884 14.720106274752558 0 0 0 0
80 80 1 5.221965103485544 14.728606281316862 0 0 0 0
81 81 1 6.932789397320198 14.749197171801056 0 0 0 0
82 82 1 8.640221037975873 14.77641289483668 0 0 0 0
83 83 1 10.35351411543644 14.776412876697488 0 0 0 0
84 84 1 11.210378292423885 15.260158409862976 0 0 0 0
85 85 1 12.921588267684553 15.238081039920779 0 0 0 0
86 86 1 14.636512118417516 15.224740404308147 0 0 0 0
87 87 1 16.357219667722156 15.219925767271588 0 0 0 0
88 88 1 18.081924557473123 15.218829418150953 0 0 0 0
89 89 1 19.808435360988916 15.218721676629134 0 0 0 0
90 90 1 0.9118105830607178 15.21882941601007 0 0 0 0
91 91 1 2.63651546089565 15.219925767686977 0 0 0 0
92 92 1 4.357223021987272 15.224740402263485 0 0 0 0
93 93 1 6.072146873419244 15.238081036259658 0 0 0 0
94 94 1 7.783356840604672 15.260158422687152 0 0 0 0
95 95 1 9.496867555290956 15.272801216579078 0 0 0 0
96 96 1 11.214743638052132 16.252360226103804 0 0 0 0
97 97 1 12.92909550479245 16.238347908147137 0 0 0 0
98 98 1 14.644321358710489 16.228466514797873 0 0 0 0
99 99 1 16.363061811675628 16.224154944385724 0 0 0 0
100 100 1 18.084925449268148 16.22286660317015 0 0 0 0
101 101 1 19.808435363900013 16.22262453336668 0 0 0 0
102 102 1 0.9088096920026046 16.22286660425646 0 0 0 0
103 103 1 2.63067331968072 16.224154938078357 0 0 0 0
104 104 1 4.349413793273375 16.22846651933218 0 0 0 0
105 105 1 6.0646396352654275 16.238347910654912 0 0 0 0
106 106 1 7.778991495729588 16.252360213303195 0 0 0 0
107 107 1 9.496867565316322 16.259775564765253 0 0 0 0
108 108 1 10.356438615864645 16.752352307177215 0 0 0 0
109 109 1 12.073787461313309 16.74326026073739 0 0 0 0
110 110 1 13.78927316760329 16.733092869275097 0 0 0 0
111 111 1 15.506021799835452 16.72720039737426 0 0 0 0
112 112 1 17.225514637272063 16.724958931938453 0 0 0 0
113 113 1 18.947197485710685 16.724391191517476 0 0 0 0
114 114 1 0.04653767079960858 16.72439119227446 0 1 0 0
115 115 1 1.7682205261020452 16.72495892926788 0 0 0 0
116 116 1 3.487713364441436 16.72720039676398 0 0 0 0
117 117 1 5.204461985451521 16.733092874323823 0 0 0 0
118 118 1 6.919947696379823 16.743260253687268 0 0 0 0
119 119 1 8.637296554800606 16.752352300054817 0 0 0 0
120 120 1 12.076015173403947 17.738683022394973 0 0 0 0
121 121 1 13.79251492738905 17.73382828320959 0 0 0 0
122 122 1 15.50916072618976 17.730852406794305 0 0 0 0
123 123 1 17.22765192772718 17.729625709107545 0 0 0 0
124 124 1 18.947940352484988 17.729293155017857 0 0 0 0
125 125 1 0.04579480547293713 17.729293156576496 0 1 0 0
126 126 1 1.7660832381485199 17.729625709897476 0 0 0 0
127 127 1 3.4845744391758964 17.730852404459185 0 0 0 0
128 128 1 5.201220225260499 17.733828278325344 0 0 0 0
129 129 1 6.917719991771269 17.738683030197212 0 0 0 0
130 130 1 8.636563890598332 17.742897526282697 0 0 0 0
131 131 1 10.357171278488241 17.742897517494356 0 0 0 0
132 132 1 11.21714983967992 0.2094595000047875 0 0 0 0
133 133 1 12.935057257033339 0.20699712073220103 0 0 0 0
134 134 1 14.651548837624437 0.2048634109016364 0 0 0 0
135 135 1 16.36888960106637 0.20374486018973373 0 0 0 0
136 136 1 18.088038055676645 0.20335662856610257 0 0 0 0
137 137 1 19.808435368483327 0.20327123445311893 0 0 0 0
138 138 1 0.9056970859712462 0.2033566299722959 0 0 0 0
139 139 1 2.6248455343178825 0.203744860366119 0 0 0 0
140 140 1 4.342186319776399 0.204863405038333 0 0 0 0
141 141 1 6.058677886833307 0.20699712305173246 0 0 0 0
142 142 1 7.776585301066836 0.2094595089773247 0 0 0 0
143 143 1 9.496867564927756 0.21061225379166248 0 0 0 0
144 144 1 11.21714983967992 1.2023159076937762 0 0 0 0
145 145 1 12.93505725703334 1.2047782869663648 0 0 0 0
146 146 1 14.651548837624441 1.2069119967969284 0 0 0 0
147 147 1 16.36888960106637 1.2080305475088295 0 0 0 0
148 148 1 18.08803805567665 1.2084187791324594 0 0 0 0
149 149 1 19.808435368483327 1.2085041732454431 0 0 0 0
150 150 1 0.9056970859712518 1.2084187777262634 0 0 0 0
151 151 1 2.624845534317883 1.2080305473324435 0 0 0 0
152 152 1 4.342186319776399 1.2069120026602331 0 0 0 0
153 153 1 6.05867788683331 1.2047782846468307 0 0 0 0
154 154 1 7.776585301066835 1.202315898721235 0 0 0 0
155 155 1 9.496867564927763 1.2011631539069008 0 0 0 0
156 156 1 10.357171278488243 1.696822297789898 0 0 0 0
157 157 1 12.076015173403952 1.7010367928892782 0 0 0 0
158 158 1 13.792514927389053 1.7058915320746655 0 0 0 0
159 159 1 15.509160726189757 1.7088674084899453 0 0 0 0
160 160 1 17.227651927727187 1.7100941061767116 0 0 0 0
161 161 1 18.94794035248499 1.710426660266391 0 0 0 0
162 162 1 0.04579480547293713 1.710426658707758 0 1 0 0
163 163 1 1.7660832381485205 1.7100941053867704 0 0 0 0
164 164 1 3.4845744391758955 1.7088674108250679 0 0 0 0
165 165 1 5.201220225260499 1.7058915369589076 0 0 0 0
166 166 1 6.91771999177127 1.701036785087037 0 0 0 0
167 167 1 8.636563890598328 1.6968222890015516 0 0 0 0
168 168 1 12.073787461313309 2.696459554546859 0 0 0 0
169 169 1 13.78927316760329 2.706626946009157 0 0 0 0
170 170 1 15.506021799835455 2.712519417909989 0 0 0 0
171 171 1 17.225514637272063 2.7147608833457957 0 0 0 0
172 172 1 18.9471974857107 2.7153286237667755 0 0 0 0
173 173 1 0.04653767079961213 2.7153286230097895 0 1 0 0
174 174 1 1.768220526102047 2.714760886016371 0 0 0 0
175 175 1 3.4877133644414355 2.712519418520275 0 0 0 0
176 176 1 5.204461985451523 2.706626940960428 0 0 0 0
177 177 1 6.91994769637982 2.696459561596984 0 0 0 0
178 178 1 8.637296554800612 2.6873675152294383 0 0 0 0
179 179 1 10.356438615864645 2.687367508107039 0 0 0 0
180 180 1 11.214743638052134 3.187359589180453 0 0 0 0
181 181 1 12.929095504792448 3.201371907137122 0 0 0 0
182 182 1 14.64432135871049 3.211253300486381 0 0 0 0
183 183 1 16.363061811675625 3.2155648708985343 0 0 0 0
184 184 1 18.084925449268155 3.2168532121141045 0 0 0 0
185 185 1 19.808435363900028 3.217095281917572 0 0 0 0
186 186 1 0.9088096920026079 3.2168532110277925 0 0 0 0
187 187 1 2.630673319680722 3.2155648772058933 0 0 0 0
188 188 1 4.3494137932733725 3.21125329595207 0 0 0 0
189 189 1 6.064639635265428 3.20137190462934 0 0 0 0
190 190 1 7.778991495729587 3.1873596019810555 0 0 0 0
191 191 1 9.496867565316322 3.179944250519001 0 0 0 0
192 192 1 11.210378292423885 4.1795614054212695 0 0 0 0
193 193 1 12.921588267684553 4.2016387753634765 0 0 0 0
194 194 1 14.636512118417516 4.21497941097611 0 0 0 0
195 195 1 16.357219667722163 4.219794048012662 0 0 0 0
196 196 1 18.08192455747313 4.220890397133293 0 0 0 0
197 197 1 19.808435360988916 4.2209981386551165 0 0 0 0
198 198 1 0.9118105830607203 4.22089039927418 0 0 0 0
199 199 1 2.6365154608956485 4.219794047597274 0 0 0 0
200 200 1 4.357223021987274 4.214979413020764 0 0 0 0
201 201 1 6.072146873419244 4.201638779024594 0 0 0 0
202 202 1 7.783356840604672 4.179561392597105 0 0 0 0
203 203 1 9.496867555290956 4.166918598705171 0 0 0 0
204 204 1 10.353514115436441 4.663306938586759 0 0 0 0
205 205 1 12.060945758816077 4.690522648816574 0 0 0 0
206 206 1 13.771770041596445 4.711113522791971 0 0 0 0
207 207 1 15.4910234975535 4.719613546670596 0 0 0 0
208 208 1 17.216125379193194 4.721898746457725 0 0 0 0
209 209 1 18.944056210511935 4.722204323736474 0 0 0 0
210 210 1 0.04967893832863979 4.722204328742446 0 1 0 0
211 211 1 1.7776097793785723 4.721898747911197 0 0 0 0
212 212 1 3.502711654164588 4.719613540531691 0 0 0 0
213 213 1 5.221965103485542 4.711113533967389 0 0 0 0
214 214 1 6.9327893973201995 4.690522643483198 0 0 0 0
215 215 1 8.640221037975875 4.663306920447569 0 0 0 0
216 216 1 12.045651498062178 5.691396563607228 0 0 0 0
217 217 1 13.755604507301246 5.716556241326215 0 0 0 0
218 218 1 15.47918630535136 5.723705748240214 0 0 0 0
219 219 1 17.209379417477916 5.724683945771096 0 0 0 0
220 220 1 18.94190167103824 5.724432986443385 0 0 0 0
221 221 1 0.05183347471195532 5.724432985950738 0 1 0 0
222 222 1 1.7843557300406219 5.7246839446374835 0 0 0 0
223 223 1 3.514548846137942 5.723705751004874 0 0 0 0
224 224 1 5.23813064115924 5.716556235838213 0 0 0 0
225 225 1 6.948083637207945 5.691396568118041 0 0 0 0
226 226 1 8.64768976227669 5.64760802527224 0 0 0 0
227 227 1 10.346045407405608 5.647608011908499 0 0 0 0
228 228 1 11.185153152838298 6.170108201264408 0 0 0 0
229 229 1 12.884278054793214 6.209558409312494 0 0 0 0
230 230 1 14.606311909451511 6.222845659794365 0 0 0 0
231 231 1 16.3381590824343 6.225332113422315 0 0 0 0
232 232 1 18.07297417907856 6.225122648790428 0 0 0 0
233 233 1 19.808435358427534 6.224856169470782 0 0 0 0
234 234 1 0.9207609486880997 6.225122644149791 0 0 0 0
235 235 1 2.6555760320270374 6.225332116799866 0 0 0 0
236 236 1 4.387423232443894 6.222845666473801 0 0 0 0
237 237 1 6.109457068345483 6.209558390070038 0 0 0 0
238 238 1 7.8085819647841825 6.170108231295135 0 0 0 0
239 239 1 9.496867566532508 6.1213304447368655 0 0 0 0
240 240 1 11.147698200107035 7.173750033565223 0 0 0 0
241 241 1 12.848934849847247 7.2193445961436264 0 0 0 0
242 242 1 14.584897155604612 7.226453058671037 0 0 0 0
243 243 1 16.3268263879312 7.226191088466667 0 0 0 0
244 244 1 18.068112643561168 7.2251449577405475 0 0 0 0
245 245 1 19.80843535626106 7.224720761827552 0 0 0 0
246 246 1 0.9256224807792633 7.225144959821476 0 0 0 0
247 247 1 2.666908731002366 7.226191084060366 0 0 0 0
248 248 1 4.408837968745729 7.226453062077992 0 0 0 0
249 249 1 6.144800276772453 7.219344601070987 0 0 0 0
250 250 1 7.8460369207742975 7.1737500170881905 0 0 0 0
251 251 1 9.496867534140616 7.083669734036785 0 0 0 0
252 252 1 10.275835601831455 7.6148661329744805 0 0 0 0
253 253 1 11.955484091175334 7.70671159480188 0 0 0 0
254 254 1 13.69877085102374 7.725418111129264 0 0 0 0
255 255 1 15.447916136225832 7.7265642468264755 0 0 0 0
256 256 1 17.193984465169144 7.72539272296449 0 0 0 0
257 257 1 18.937280628188294 7.724562610175499 0 0 0 0
258 258 1 0.056454510277397674 7.72456261325145 0 1 0 0
259 259 1 1.7997506762727995 7.725392724056743 0 0 0 0
260 260 1 3.5458190169763006 7.726564238965733 0 0 0 0
261 261 1 5.2949642662859295 7.7254181173064005 0 0 0 0
262 262 1 7.038251068259288 7.706711605284633 0 0 0 0
263 263 1 8.717899528459194 7.614866079738805 0 0 0 0
264 264 1 11.87132526963589 8.718300497763162 0 0 0 0
265 265 1 13.66716645393939 8.724324502054609 0 0 0 0
266 266 1 15.434688533587359 8.723663650144397 0 0 0 0
267 267 1 17.18836203308783 8.722757039602246 0 0 0 0
268 268 1 18.93570301320075 8.722253270516568 0 0 0 0
269 269 1 0.05803212495530019 8.722253271107846 0 1 0 0
270 270 1 1.8053731046996884 8.72275703616172 0 0 0 0
271 271 1 3.5590466147539375 8.723663658533335 0 0 0 0
272 272 1 5.326568672923927 8.724324486640038 0 0 0 0
273 273 1 7.122409864944126 8.718300510248705 0 0 0 0
274 274 1 8.948030082711837 8.59045339389907 0 0 0 0
275 275 1 10.045705105633536 8.590453381284547 0 0 0 0
276 276 1 10.907553727235245 9.206486841869788 0 0 0 0
277 277 1 12.760192915354695 9.22473200197126 0 0 0 0
278 278 1 14.547952738234759 9.223395099963588 0 0 0 0
279 279 1 16.310336127504307 9.222255691721704 0 0 0 0
280 280 1 18.06158698660704 9.221628744136344 0 0 0 0
281 281 1 19.808435357615906 9.221431682342525 0 0 0 0
282 282 1 0.9321481320220043 9.221628741351816 0 0 0 0
283 283 1 2.6833989870909623 9.222255695584952 0 0 0 0
284 284 1 4.4457823752086645 9.22339510183365 0 0 0 0
285 285 1 6.233542225407695 9.22473198953634 0 0 0 0
286 286 1 8.086181337699754 9.206486864014261 0 0 0 0

Velocities

1 0 0 0
2 0 0 0
3 0 0 0
4 0 0 0
5 0 0 0
6 0 0 0
7 0 0 0
8 0 0 0
9 0 0 0
10 0 0 0
11 0 0 0
12 0 0 0
13 0 0 0
14 0 0 0
15 0 0 0
16 0 0 0
17 0 0 0
18 0 0 0
19 0 0 0
20 0 0 0
21 0 0 0
22 0 0 0
23 0 0 0
24 0 0 0
25 0 0 0
26 0 0 0
27 0 0 0
28 0 0 0
29 0 0 0
30 0 0 0
31 0 0 0
32 0 0 0
33 0 0 0
34 0 0 0
35 0 0 0
36 0 0 0
37 0 0 0
38 0 0 0
39 0 0 0
40 0 0 0
41 0 0 0
42 0 0 0
43 0 0 0
44 0 0 0
45 0 0 0
46 0 0 0
47 0 0 0
48 0 0 0
49 0 0 0
50 0 0 0
51 0 0 0
52 0 0 0
53 0 0 0
54 0 0 0
55 0 0 0
56 0 0 0
57 0 0 0
58 0 0 0
59 0 0 0
60 0 0 0
61 0 0 0
62 0 0 0
63 0 0 0
64 0 0 0
65 0 0 0
66 0 0 0
67 0 0 0
68 0 0 0
69 0 0 0
70 0 0 0
71 0 0 0
72 0 0 0
73 0 0 0
74 0 0 0
75 0 0 0
76 0 0 0
77 0 0 0
78 0 0 0
79 0 0 0
80 0 0 0
81 0 0 0
82 0 0 0
83 0 0 0
84 0 0 0
85 0 0 0
86 0 0 0
87 0 0 0
88 0 0 0
89 0 0 0
90 0 0 0
91 0 0 0
92 0 0 0
93 0 0 0
94 0 0 0
95 0 0 0
96 0 0 0
97 0 0 0
98 0 0 0
99 0 0 0
100 0 0 0
101 0 0 0
102 0 0 0
103 0 0 0
104 0 0 0
105 0 0 0
106 0 0 0
107 0 0 0
108 0 0 0
109 0 0 0
110 0 0 0
111 0 0 0
112 0 0 0
113 0 0 0
114 0 0 0
115 0 0 0
116 0 0 0
117 0 0 0
118 0 0 0
119 0 0 0
120 0 0 0
121 0 0 0
122 0 0 0
123 0 0 0
124 0 0 0
125 0 0 0
126 0 0 0
127 0 0 0
128 0 0 0
129 0 0 0
130 0 0 0
131 0 0 0
132 0 0 0
133 0 0 0
134 0 0 0
135 0 0 0
136 0 0 0
137 0 0 0
138 0 0 0
139 0 0 0
140 0 0 0
141 0 0 0
142 0 0 0
143 0 0 0
144 0 0 0
145 0 0 0
146 0 0 0
147 0 0 0
148 0 0 0
149 0 0 0
150 0 0 0
151 0 0 0
152 0 0 0
153 0 0 0
154 0 0 0
155 0 0 0
156 0 0 0
157 0 0 0
158 0 0 0
159 0 0 0
160 0 0 0
161 0 0 0
162 0 0 0
163 0 0 0
164 0 0 0
165 0 0 0
166 0 0 0
167 0 0 0
168 0 0 0
169 0 0 0
170 0 0 0
171 0 0 0
172 0 0 0
173 0 0 0
174 0 0 0
175 0 0 0
176 0 0 0
177 0 0 0
178 0 0 0
179 0 0 0
180 0 0 0
181 0 0 0
182 0 0 0
183 0 0 0
184 0 0 0
185 0 0 0
186 0 0 0
187 0 0 0
188 0 0 0
189 0 0 0
190 0 0 0
191 0 0 0
192 0 0 0
193 0 0 0
194 0 0 0
195 0 0 0
196 0 0 0
197 0 0 0
198 0 0 0
199 0 0 0
200 0 0 0
201 0 0 0
202 0 0 0
203 0 0 0
204 0 0 0
205 0 0 0
206 0 0 0
207 0 0 0
208 0 0 0
209 0 0 0
210 0 0 0
211 0 0 0
212 0 0 0
213 0 0 0
214 0 0 0
215 0 0 0
216 0 0 0
217 0 0 0
218 0 0 0
219 0 0 0
220 0 0 0
221 0 0 0
222 0 0 0
223 0 0 0
224 0 0 0
225 0 0 0
226 0 0 0
227 0 0 0
228 0 0 0
229 0 0 0
230 0 0 0
231 0 0 0
232 0 0 0
233 0 0 0
234 0 0 0
235 0 0 0
236 0 0 0
237 0 0 0
238 0 0 0
239 0 0 0
240 0 0 0
241 0 0 0
242 0 0 0
243 0 0 0
244 0 0 0
245 0 0 0
246 0 0 0
247 0 0 0
248 0 0 0
249 0 0 0
250 0 0 0
251 0 0 0
252 0 0 0
253 0 0 0
254 0 0 0
255 0 0 0
256 0 0 0
257 0 0 0
258 0 0 0
259 0 0 0
260 0 0 0
261 0 0 0
262 0 0 0
263 0 0 0
264 0 0 0
265 0 0 0
266 0 0 0
267 0 0 0
268 0 0 0
269 0 0 0
270 0 0 0
271 0 0 0
272 0 0 0
273 0 0 0
274 0 0 0
275 0 0 0
276 0 0 0
277 0 0 0
278 0 0 0
279 0 0 0
280 0 0 0
281 0 0 0
282 0 0 0
283 0 0 0
284 0 0 0
285 0 0 0
286 0 0 0

Bonds

1 1 1 12
2 1 1 13
3 1 1 276
4 1 2 13
5 1 2 14
6 1 2 277
7 1 3 14
8 1 3 15
9 1 3 278
10 1 4 15
11 1 4 16
12 1 4 279
13 1 5 16
14 1 5 17
15 1 5 280
16 1 6 17
17 1 6 18
18 1 6 281
19 1 7 18
20 1 7 19
21 1 7 282
22 1 8 19
23 1 8 20
24 1 8 283
25 1 9 20
26 1 9 21
27 1 9 284
28 1 10 21
29 1 10 22
30 1 10 285
31 1 11 22
32 1 11 23
33 1 11 286
34 1 12 35
35 1 12 23
36 1 13 24
37 1 14 25
38 1 15 26
39 1 16 27
40 1 17 28
41 1 18 29
42 1 19 30
43 1 20 31
44 1 21 32
45 1 22 33
46 1 23 34
47 1 24 36
48 1 24 37
49 1 25 37
50 1 25 38
51 1 26 38
52 1 26 39
53 1 27 39
54 1 27 40
55 1 28 40
56 1 28 41
57 1 29 41
58 1 29 42
59 1 30 42
60 1 30 43
61 1 31 43
62 1 31 44
63 1 32 44
64 1 32 45
65 1 33 45
66 1 33 46
67 1 34 46
68 1 34 47
69 1 35 47
70 1 35 36
71 1 36 48
72 1 37 49
73 1 38 50
74 1 39 51
75 1 40 52
76 1 41 53
77 1 42 54
78 1 43 55
79 1 44 56
80 1 45 57
81 1 46 58
82 1 47 59
83 1 48 60
84 1 48 61
85 1 49 61
86 1 49 62
87 1 50 62
88 1 50 63
89 1 51 63
90 1 51 64
91 1 52 64
92 1 52 65
93 1 53 65
94 1 53 66
95 1 54 66
96 1 54 67
97 1 55 67
98 1 55 68
99 1 56 68
100 1 56 69
101 1 57 69
102 1 57 70
103 1 58 70
104 1 58 71
105 1 59 71
106 1 59 60
107 1 60 83
108 1 61 72
109 1 62 73
110 1 63 74
111 1 64 75
112 1 65 76
113 1 66 77
114 1 67 78
115 1 68 79
116 1 69 80
117 1 70 81
118 1 71 82
119 1 72 84
120 1 72 85
121 1 73 85
122 1 73 86
123 1 74 86
124 1 74 87
125 1 75 87
126 1 75 88
127 1 76 88
128 1 76 89
129 1 77 89
130 1 77 90
131 1 78 90
132 1 78 91
133 1 79 91
134 1 79 92
135 1 80 92
136 1 80 93
137 1 81 93
138 1 81 94
139 1 82 94
140 1 82 95
141 1 83 95
142 1 83 84
143 1 84 96
144 1 85 97
145 1 86 98
146 1 87 99
147 1 88 100
148 1 89 101
149 1 90 102
150 1 91 103
151 1 92 104
152 1 93 105
153 1 94 106
154 1 95 107
155 1 96 108
156 1 96 109
157 1 97 109
158 1 97 110
159 1 98 110
160 1 98 111
161 1 99 111
162 1 99 112
163 1 100 112
164 1 100 113
165 1 101 113
166 1 101 114
167 1 102 114
168 1 102 115
169 1 103 115
170 1 103 116
171 1 104 116
172 1 104 117
173 1 105 117
174 1 105 118
175 1 106 118
176 1 106 119
177 1 107 119
178 1 107 108
179 1 108 131
180 1 109 120
181 1 110 121
182 1 111 122
183 1 112 123
184 1 113 124
185 1 114 125
186 1 115 126
187 1 116 127
188 1 117 128
189 1 118 129
190 1 119 130
191 1 120 132
192 1 120 133
193 1 121 133
194 1 121 134
195 1 122 134
196 1 122 135
197 1 123 135
198 1 123 136
199 1 124 136
200 1 124 137
201 1 125 137
202 1 125 138
203 1 126 138
204 1 126 139
205 1 127 139
206 1 127 140
207 1 128 140
208 1 128 141
209 1 129 141
210 1 129 142
211 1 130 142
212 1 130 143
213 1 131 143
214 1 131 132
215 1 132 144
216 1 133 145
217 1 134 146
218 1 135 147
219 1 136 148
220 1 137 149
221 1 138 150
222 1 139 151
223 1 140 152
224 1 141 153
225 1 142 154
226 1 143 155
227 1 144 156
228 1 144 157
229 1 145 157
230 1 145 158
231 1 146 158
232 1 146 159
233 1 147 159
234 1 147 160
235 1 148 160
236 1 148 161
237 1 149 161
238 1 149 162
239 1 150 162
240 1 150 163
241 1 151 163
242 1 151 164
243 1 152 164
244 1 152 165
245 1 153 165
246 1 153 166
247 1 154 166
248 1 154 167
249 1 155 167
250 1 155 156
251 1 156 179
252 1 157 168
253 1 158 169
254 1 159 170
255 1 160 171
256 1 161 172
257 1 162 173
258 1 163 174
259 1 164 175
260 1 165 176
261 1 166 177
262 1 167 178
263 1 168 180
264 1 168 181
265 1 169 181
266 1 169 182
267 1 170 182
268 1 170 183
269 1 171 183
270 1 171 184
271 1 172 184
272 1 172 185
273 1 173 185
274 1 173 186
275 1 174 186
276 1 174 187
277 1 175 187
278 1 175 188
279 1 176 188
280 1 176 189
281 1 177 189
282 1 177 190
283 1 178 190
284 1 178 191
285 1 179 191
286 1 179 180
287 1 180 192
288 1 181 193
289 1 182 194
290 1 183 195
291 1 184 196
292 1 185 197
293 1 186 198
294 1 187 199
295 1 188 200
296 1 189 201
297 1 190 202
298 1 191 203
299 1 192 204
300 1 192 205
301 1 193 205
302 1 193 206
303 1 194 206
304 1 194 207
305 1 195 207
306 1 195 208
307 1 196 208
308 1 196 209
309 1 197 209
310 1 197 210
311 1 198 210
312 1 198 211
313 1 199 211
314 1 199 212
315 1 200 212
316 1 200 213
317 1 201 213
318 1 201 214
319 1 202 214
320 1 202 215
321 1 203 215
322 1 203 204
323 1 204 227
324 1 205 216
325 1 206 217
326 1 207 218
327 1 208 219
328 1 209 220
329 1 210 221
330 1 211 222
331 1 212 223
332 1 213 224
333 1 214 225
334 1 215 226
335 1 216 228
336 1 216 229
337 1 217 229
338 1 217 230
339 1 218 230
340 1 218 231
341 1 219 231
342 1 219 232
343 1 220 232
344 1 220 233
345 1 221 233
346 1 221 234
347 1 222 234
348 1 222 235
349 1 223 235
350 1 223 236
351 1 224 236
352 1 224 237
353 1 225 237
354 1 225 238
355 1 226 238
356 1 226 239
357 1 227 239
358 1 227 228
359 1 228 240
360 1 229 241
361 1 230 242
362 1 231 243
363 1 232 244
364 1 233 245
365 1 234 246
366 1 235 247
367 1 236 248
368 1 237 249
369 1 238 250
370 1 239 251
371 1 240 252
372 1 240 253
373 1 241 253
374 1 241 254
375 1 242 254
376 1 242 255
377 1 243 255
378 1 243 256
379 1 244 256
380 1 244 257
381 1 245 257
382 1 245 258
383 1 246 258
384 1 246 259
385 1 247 259
386 1 247 260
387 1 248 260
388 1 248 261
389 1 249 261
390 1 249 262
391 1 250 262
392 1 250 263
393 1 251 263
394 1 251 252
395 1 252 275
396 1 253 264
397 1 254 265
398 1 255 266
399 1 256 267
400 1 257 268
401 1 258 269
402 1 259 270
403 1 260 271
404 1 261 272
405 1 262 273
406 1 263 274
407 1 264 277
408 1 264 276
409 1 265 278
410 1 265 277
411 1 266 279
412 1 266 278
413 1 267 280
414 1 267 279
415 1 268 281
416 1 268 280
417 1 269 282
418 1 269 281
419 1 270 283
420 1 270 282
421 1 271 284
422 1 271 283
423 1 272 285
424 1 272 284
425 1 273 286
426 1 273 285
427 1 274 286
428 1 274 275
429 1 275 276

Angles

1 1 12 1 13
2 1 12 1 276
3 1 13 1 276
4 1 13 2 14
5 1 13 2 277
6 1 14 2 277
7 1 14 3 15
8 1 14 3 278
9 1 15 3 278
10 1 15 4 16
11 1 15 4 279
12 1 16 4 279
13 1 16 5 17
14 1 16 5 280
15 1 17 5 280
16 1 17 6 18
17 1 17 6 281
18 1 18 6 281
19 1 18 7 19
20 1 18 7 282
21 1 19 7 282
22 1 19 8 20
23 1 19 8 283
24 1 20 8 283
25 1 20 9 21
26 1 20 9 284
27 1 21 9 284
28 1 21 10 22
29 1 21 10 285
30 1 22 10 285
31 1 22 11 23
32 1 22 11 286
33 1 23 11 286
34 1 35 12 1
35 1 35 12 23
36 1 1 12 23
37 1 1 13 24
38 1 1 13 2
39 1 24 13 2
40 1 2 14 25
41 1 2 14 3
42 1 25 14 3
43 1 3 15 26
44 1 3 15 4
45 1 26 15 4
46 1 4 16 27
47 1 4 16 5
48 1 27 16 5
49 1 5 17 28
50 1 5 17 6
51 1 28 17 6
52 1 6 18 29
53 1 6 18 7
54 1 29 18 7
55 1 7 19 30
56 1 7 19 8
57 1 30 19 8
58 1 8 20 31
59 1 8 20 9
60 1 31 20 9
61 1 9 21 32
62 1 9 21 10
63 1 32 21 10
64 1 10 22 33
65 1 10 22 11
66 1 33 22 11
67 1 11 23 34
68 1 11 23 12
69 1 34 23 12
70 1 36 24 37
71 1 36 24 13
72 1 37 24 13
73 1 37 25 38
74 1 37 25 14
75 1 38 25 14
76 1 38 26 39
77 1 38 26 15
78 1 39 26 15
79 1 39 27 40
80 1 39 27 16
81 1 40 27 16
82 1 40 28 41
83 1 40 28 17
84 1 41 28 17
85 1 41 29 42
86 1 41 29 18
87 1 42 29 18
88 1 42 30 43
89 1 42 30 19
90 1 43 30 19
91 1 43 31 44
92 1 43 31 20
93 1 44 31 20
94 1 44 32 45
95 1 44 32 21
96 1 45 32 21
97 1 45 33 46
98 1 45 33 22
99 1 46 33 22
100 1 46 34 47
101 1 46 34 23
102 1 47 34 23
103 1 12 35 47
104 1 12 35 36
105 1 47 35 36
106 1 35 36 48
107 1 35 36 24
108 1 48 36 24
109 1 24 37 49
110 1 24 37 25
111 1 49 37 25
112 1 25 38 50
113 1 25 38 26
114 1 50 38 26
115 1 26 39 51
116 1 26 39 27
117 1 51 39 27
118 1 27 40 52
119 1 27 40 28
120 1 52 40 28
121 1 28 41 53
122 1 28 41 29
123 1 53 41 29
124 1 29 42 54
125 1 29 42 30
126 1 54 42 30
127 1 30 43 55
128 1 30 43 31
129 1 55 43 31
130 1 31 44 56
131 1 31 44 32
132 1 56 44 32
133 1 32 45 57
134 1 32 45 33
135 1 57 45 33
136 1 33 46 58
137 1 33 46 34
138 1 58 46 34
139 1 34 47 59
140 1 34 47 35
141 1 59 47 35
142 1 60 48 61
143 1 60 48 36
144 1 61 48 36
145 1 61 49 62
146 1 61 49 37
147 1 62 49 37
148 1 62 50 63
149 1 62 50 38
150 1 63 50 38
151 1 63 51 64
152 1 63 51 39
153 1 64 51 39
154 1 64 52 65
155 1 64 52 40
156 1 65 52 40
157 1 65 53 66
158 1 65 53 41
159 1 66 53 41
160 1 66 54 67
161 1 66 54 42
162 1 67 54 42
163 1 67 55 68
164 1 67 55 43
165 1 68 55 43
166 1 68 56 69
167 1 68 56 44
168 1 69 56 44
169 1 69 57 70
170 1 69 57 45
171 1 70 57 45
172 1 70 58 71
173 1 70 58 46
174 1 71 58 46
175 1 47 59 71
176 1 47 59 60
177 1 71 59 60
178 1 59 60 83
179 1 59 60 48
180 1 83 60 48
181 1 48 61 72
182 1 48 61 49
183 1 72 61 49
184 1 49 62 73
185 1 49 62 50
186 1 73 62 50
187 1 50 63 74
188 1 50 63 51
189 1 74 63 51
190 1 51 64 75
191 1 51 64 52
192 1 75 64 52
193 1 52 65 76
194 1 52 65 53
195 1 76 65 53
196 1 53 66 77
197 1 53 66 54
198 1 77 66 54
199 1 54 67 78
200 1 54 67 55
201 1 78 67 55
202 1 55 68 79
203 1 55 68 56
204 1 79 68 56
205 1 56 69 80
206 1 56 69 57
207 1 80 69 57
208 1 57 70 81
209 1 57 70 58
210 1 81 70 58
211 1 58 71 82
212 1 58 71 59
213 1 82 71 59
214 1 84 72 85
215 1 84 72 61
216 1 85 72 61
217 1 85 73 86
218 1 85 73 62
219 1 86 73 62
220 1 86 74 87
221 1 86 74 63
222 1 87 74 63
223 1 87 75 88
224 1 87 75 64
225 1 88 75 64
226 1 88 76 89
227 1 88 76 65
228 1 89 76 65
229 1 89 77 90
230 1 89 77 66
231 1 90 77 66
232 1 90 78 91
233 1 90 78 67
234 1 91 78 67
235 1 91 79 92
236 1 91 79 68
237 1 92 79 68
238 1 92 80 93
239 1 92 80 69
240 1 93 80 69
241 1 93 81 94
242 1 93 81 70
243 1 94 81 70
244 1 94 82 95
245 1 94 82 71
246 1 95 82 71
247 1 60 83 95
248 1 60 83 84
249 1 95 83 84
250 1 83 84 96
251 1 83 84 72
252 1 96 84 72
253 1 72 85 97
254 1 72 85 73
255 1 97 85 73
256 1 73 86 98
257 1 73 86 74
258 1 98 86 74
259 1 74 87 99
260 1 74 87 75
261 1 99 87 75
262 1 75 88 100
263 1 75 88 76
264 1 100 88 76
265 1 76 89 101
266 1 76 89 77
267 1 101 89 77
268 1 77 90 102
269 1 77 90 78
270 1 102 90 78
271 1 78 91 103
272 1 78 91 79
273 1 103 91 79
274 1 79 92 104
275 1 79 92 80
276 1 104 92 80
277 1 80 93 105
278 1 80 93 81
279 1 105 93 81
280 1 81 94 106
281 1 81 94 82
282 1 106 94 82
283 1 82 95 107
284 1 82 95 83
285 1 107 95 83
286 1 108 96 109
287 1 108 96 84
288 1 109 96 84
289 1 109 97 110
290 1 109 97 85
291 1 110 97 85
292 1 110 98 111
293 1 110 98 86
294 1 111 98 86
295 1 111 99 112
296 1 111 99 87
297 1 112 99 87
298 1 112 100 113
299 1 112 100 88
300 1 113 100 88
301 1 113 101 114
302 1 113 101 89
303 1 114 101 89
304 1 114 102 115
305 1 114 102 90
306 1 115 102 90
307 1 115 103 116
308 1 115 103 91
309 1 116 103 91
310 1 116 104 117
311 1 116 104 92
312 1 117 104 92
313 1 117 105 118
314 1 117 105 93
315 1 118 105 93
316 1 118 106 119
317 1 118 106 94
318 1 119 106 94
319 1 95 107 119
320 1 95 107 108
321 1 119 107 108
322 1 107 108 131
323 1 107 108 96
324 1 131 108 96
325 1 96 109 120
326 1 96 109 97
327 1 120 109 97
328 1 97 110 121
329 1 97 110 98
330 1 121 110 98
331 1 98 111 122
332 1 98 111 99
333 1 122 111 99
334 1 99 112 123
335 1 99 112 100
336 1 123 112 100
337 1 100 113 124
338 1 100 113 101
339 1 124 113 101
340 1 101 114 125
341 1 101 114 102
342 1 125 114 102
343 1 102 115 126
344 1 102 115 103
345 1 126 115 103
346 1 103 116 127
347 1 103 116 104
348 1 127 116 104
349 1 104 117 128
350 1 104 117 105
351 1 128 117 105
352 1 105 118 129
353 1 105 118 106
354 1 129 118 106
355 1 106 119 130
356 1 106 119 107
357 1 130 119 107
358 1 132 120 133
359 1 132 120 109
360 1 133 120 109
361 1 133 121 134
362 1 133 121 110
363 1 134 121 110
364 1 134 122 135
365 1 134 122 111
366 1 135 122 111
367 1 135 123 136
368 1 135 123 112
369 1 136 123 112
370 1 136 124 137
371 1 136 124 113
372 1 137 124 113
373 1 137 125 138
374 1 137 125 114
375 1 138 125 114
376 1 138 126 139