DATA FILE Produced from netmc results (cf David Morley)
1310 atoms
1 atom types
0.00000 62.94621514090197 xlo xhi
0.00000 54.51302138021704 ylo yhi

 Masses

1 12.0000 # Si

 Atoms # molecular

1    1    39.94658295951145        29.00372291383342        0.0                     # C
2    1    42.36765999368258        29.00372291383342        0.0                     # C
3    1    44.78859725087581        29.00372291383342        0.0                     # C
4    1    47.20967428504693        29.00372291383342        0.0                     # C
5    1    49.63061154224016        29.00372291383342        0.0                     # C
6    1    52.05168857641129        29.00372291383342        0.0                     # C
7    1    54.47262583360452        29.00372291383342        0.0                     # C
8    1    56.893702867775644       29.00372291383342        0.0                     # C
9    1    59.314640124968875       29.00372291383342        0.0                     # C
10   1    61.735717159139995       29.00372291383342        0.0                     # C
11   1    1.2104686285966142       29.00372291383342        0.0                     # C
12   1    3.6315456627677403       29.00372291383342        0.0                     # C
13   1    6.052482919960968        29.00372291383342        0.0                     # C
14   1    8.473559954132094        29.00372291383342        0.0                     # C
15   1    10.894497211325325       29.00372291383342        0.0                     # C
16   1    13.315574245496451       29.00372291383342        0.0                     # C
17   1    15.736511502689677       29.00372291383342        0.0                     # C
18   1    18.157588536860803       29.00372291383342        0.0                     # C
19   1    20.578525794054034       29.00372291383342        0.0                     # C
20   1    22.99960282822516        29.00372291383342        0.0                     # C
21   1    25.420540085418388       29.00372291383342        0.0                     # C
22   1    38.73611433091484        29.702607803323385       0.0                     # C
23   1    41.157191365085964       29.702607803323385       0.0                     # C
24   1    43.578128622279195       29.702607803323385       0.0                     # C
25   1    45.99920565645032        29.702607803323385       0.0                     # C
26   1    48.420142913643545       29.702607803323385       0.0                     # C
27   1    50.84121994781467        29.702607803323385       0.0                     # C
28   1    53.2621572050079         29.702607803323385       0.0                     # C
29   1    55.68323423917903        29.702607803323385       0.0                     # C
30   1    58.10417149637226        29.702607803323385       0.0                     # C
31   1    60.52524853054338        29.702607803323385       0.0                     # C
32   1    62.94618578773661        29.702607803323385       0.0                     # C
33   1    2.4210770341711263       29.702607803323385       0.0                     # C
34   1    4.842014291364355        29.702607803323385       0.0                     # C
35   1    7.2630913255354805       29.702607803323385       0.0                     # C
36   1    9.68402858272871         29.702607803323385       0.0                     # C
37   1    12.105105616899834       29.702607803323385       0.0                     # C
38   1    14.526042874093065       29.702607803323385       0.0                     # C
39   1    16.947119908264188       29.702607803323385       0.0                     # C
40   1    19.36805716545742        29.702607803323385       0.0                     # C
41   1    21.789134199628545       29.702607803323385       0.0                     # C
42   1    24.210071456821773       29.702607803323385       0.0                     # C
43   1    26.631148490992903       29.702607803323385       0.0                     # C
44   1    38.73611433091484        31.10037758230331        0.0                     # C
45   1    41.157191365085964       31.10037758230331        0.0                     # C
46   1    43.578128622279195       31.10037758230331        0.0                     # C
47   1    45.99920565645032        31.10037758230331        0.0                     # C
48   1    48.420142913643545       31.10037758230331        0.0                     # C
49   1    50.84121994781467        31.10037758230331        0.0                     # C
50   1    53.2621572050079         31.10037758230331        0.0                     # C
51   1    55.68323423917903        31.10037758230331        0.0                     # C
52   1    58.10417149637226        31.10037758230331        0.0                     # C
53   1    60.52524853054338        31.10037758230331        0.0                     # C
54   1    62.94618578773661        31.10037758230331        0.0                     # C
55   1    2.4210770341711263       31.10037758230331        0.0                     # C
56   1    4.842014291364355        31.10037758230331        0.0                     # C
57   1    7.2630913255354805       31.10037758230331        0.0                     # C
58   1    9.68402858272871         31.10037758230331        0.0                     # C
59   1    12.105105616899834       31.10037758230331        0.0                     # C
60   1    14.526042874093065       31.10037758230331        0.0                     # C
61   1    16.947119908264188       31.10037758230331        0.0                     # C
62   1    19.36805716545742        31.10037758230331        0.0                     # C
63   1    21.789134199628545       31.10037758230331        0.0                     # C
64   1    24.210071456821773       31.10037758230331        0.0                     # C
65   1    26.631148490992903       31.10037758230331        0.0                     # C
66   1    39.94658295951145        31.79926247179327        0.0                     # C
67   1    42.36765999368258        31.79926247179327        0.0                     # C
68   1    44.78859725087581        31.79926247179327        0.0                     # C
69   1    47.20967428504693        31.79926247179327        0.0                     # C
70   1    49.63061154224016        31.79926247179327        0.0                     # C
71   1    52.05168857641129        31.79926247179327        0.0                     # C
72   1    54.47262583360452        31.79926247179327        0.0                     # C
73   1    56.893702867775644       31.79926247179327        0.0                     # C
74   1    59.314640124968875       31.79926247179327        0.0                     # C
75   1    61.735717159139995       31.79926247179327        0.0                     # C
76   1    1.2104686285966142       31.79926247179327        0.0                     # C
77   1    3.6315456627677403       31.79926247179327        0.0                     # C
78   1    6.052482919960968        31.79926247179327        0.0                     # C
79   1    8.473559954132094        31.79926247179327        0.0                     # C
80   1    10.894497211325325       31.79926247179327        0.0                     # C
81   1    13.315574245496451       31.79926247179327        0.0                     # C
82   1    15.736511502689677       31.79926247179327        0.0                     # C
83   1    18.157588536860803       31.79926247179327        0.0                     # C
84   1    20.578525794054034       31.79926247179327        0.0                     # C
85   1    22.99960282822516        31.79926247179327        0.0                     # C
86   1    25.420540085418388       31.79926247179327        0.0                     # C
87   1    37.52564570231822        33.19703225077319        0.0                     # C
88   1    39.94658295951145        33.19703225077319        0.0                     # C
89   1    42.36765999368258        33.19703225077319        0.0                     # C
90   1    44.78859725087581        33.19703225077319        0.0                     # C
91   1    47.20967428504693        33.19703225077319        0.0                     # C
92   1    49.63061154224016        33.19703225077319        0.0                     # C
93   1    52.05168857641129        33.19703225077319        0.0                     # C
94   1    54.47262583360452        33.19703225077319        0.0                     # C
95   1    56.893702867775644       33.19703225077319        0.0                     # C
96   1    59.314640124968875       33.19703225077319        0.0                     # C
97   1    61.735717159139995       33.19703225077319        0.0                     # C
98   1    1.2104686285966142       33.19703225077319        0.0                     # C
99   1    3.6315456627677403       33.19703225077319        0.0                     # C
100  1    6.052482919960968        33.19703225077319        0.0                     # C
101  1    8.473559954132094        33.19703225077319        0.0                     # C
102  1    10.894497211325325       33.19703225077319        0.0                     # C
103  1    13.315574245496451       33.19703225077319        0.0                     # C
104  1    15.736511502689677       33.19703225077319        0.0                     # C
105  1    18.157588536860803       33.19703225077319        0.0                     # C
106  1    20.578525794054034       33.19703225077319        0.0                     # C
107  1    22.99960282822516        33.19703225077319        0.0                     # C
108  1    25.420540085418388       33.19703225077319        0.0                     # C
109  1    27.841617119589515       33.19703225077319        0.0                     # C
110  1    31.473162782357257       33.89591714026316        0.0                     # C
111  1    33.89410003955048        33.89591714026316        0.0                     # C
112  1    36.31517707372161        33.89591714026316        0.0                     # C
113  1    38.73611433091484        33.89591714026316        0.0                     # C
114  1    41.157191365085964       33.89591714026316        0.0                     # C
115  1    43.578128622279195       33.89591714026316        0.0                     # C
116  1    45.99920565645032        33.89591714026316        0.0                     # C
117  1    48.420142913643545       33.89591714026316        0.0                     # C
118  1    50.84121994781467        33.89591714026316        0.0                     # C
119  1    53.2621572050079         33.89591714026316        0.0                     # C
120  1    55.68323423917903        33.89591714026316        0.0                     # C
121  1    58.10417149637226        33.89591714026316        0.0                     # C
122  1    60.52524853054338        33.89591714026316        0.0                     # C
123  1    62.94618578773661        33.89591714026316        0.0                     # C
124  1    2.4210770341711263       33.89591714026316        0.0                     # C
125  1    4.842014291364355        33.89591714026316        0.0                     # C
126  1    7.2630913255354805       33.89591714026316        0.0                     # C
127  1    9.68402858272871         33.89591714026316        0.0                     # C
128  1    12.105105616899834       33.89591714026316        0.0                     # C
129  1    14.526042874093065       33.89591714026316        0.0                     # C
130  1    16.947119908264188       33.89591714026316        0.0                     # C
131  1    19.36805716545742        33.89591714026316        0.0                     # C
132  1    21.789134199628545       33.89591714026316        0.0                     # C
133  1    24.210071456821773       33.89591714026316        0.0                     # C
134  1    26.631148490992903       33.89591714026316        0.0                     # C
135  1    29.05208574818613        33.89591714026316        0.0                     # C
136  1    33.89410003955048        35.293686919243086       0.0                     # C
137  1    36.31517707372161        35.293686919243086       0.0                     # C
138  1    38.73611433091484        35.293686919243086       0.0                     # C
139  1    41.157191365085964       35.293686919243086       0.0                     # C
140  1    43.578128622279195       35.293686919243086       0.0                     # C
141  1    45.99920565645032        35.293686919243086       0.0                     # C
142  1    48.420142913643545       35.293686919243086       0.0                     # C
143  1    50.84121994781467        35.293686919243086       0.0                     # C
144  1    53.2621572050079         35.293686919243086       0.0                     # C
145  1    55.68323423917903        35.293686919243086       0.0                     # C
146  1    58.10417149637226        35.293686919243086       0.0                     # C
147  1    60.52524853054338        35.293686919243086       0.0                     # C
148  1    62.94618578773661        35.293686919243086       0.0                     # C
149  1    2.4210770341711263       35.293686919243086       0.0                     # C
150  1    4.842014291364355        35.293686919243086       0.0                     # C
151  1    7.2630913255354805       35.293686919243086       0.0                     # C
152  1    9.68402858272871         35.293686919243086       0.0                     # C
153  1    12.105105616899834       35.293686919243086       0.0                     # C
154  1    14.526042874093065       35.293686919243086       0.0                     # C
155  1    16.947119908264188       35.293686919243086       0.0                     # C
156  1    19.36805716545742        35.293686919243086       0.0                     # C
157  1    21.789134199628545       35.293686919243086       0.0                     # C
158  1    24.210071456821773       35.293686919243086       0.0                     # C
159  1    26.631148490992903       35.293686919243086       0.0                     # C
160  1    29.05208574818613        35.293686919243086       0.0                     # C
161  1    31.473162782357257       35.293686919243086       0.0                     # C
162  1    32.683631410953865       35.99257180873304        0.0                     # C
163  1    35.104568668147095       35.99257180873304        0.0                     # C
164  1    37.52564570231822        35.99257180873304        0.0                     # C
165  1    39.94658295951145        35.99257180873304        0.0                     # C
166  1    42.36765999368258        35.99257180873304        0.0                     # C
167  1    44.78859725087581        35.99257180873304        0.0                     # C
168  1    47.20967428504693        35.99257180873304        0.0                     # C
169  1    49.63061154224016        35.99257180873304        0.0                     # C
170  1    52.05168857641129        35.99257180873304        0.0                     # C
171  1    54.47262583360452        35.99257180873304        0.0                     # C
172  1    56.893702867775644       35.99257180873304        0.0                     # C
173  1    59.314640124968875       35.99257180873304        0.0                     # C
174  1    61.735717159139995       35.99257180873304        0.0                     # C
175  1    1.2104686285966142       35.99257180873304        0.0                     # C
176  1    3.6315456627677403       35.99257180873304        0.0                     # C
177  1    6.052482919960968        35.99257180873304        0.0                     # C
178  1    8.473559954132094        35.99257180873304        0.0                     # C
179  1    10.894497211325325       35.99257180873304        0.0                     # C
180  1    13.315574245496451       35.99257180873304        0.0                     # C
181  1    15.736511502689677       35.99257180873304        0.0                     # C
182  1    18.157588536860803       35.99257180873304        0.0                     # C
183  1    20.578525794054034       35.99257180873304        0.0                     # C
184  1    22.99960282822516        35.99257180873304        0.0                     # C
185  1    25.420540085418388       35.99257180873304        0.0                     # C
186  1    27.841617119589515       35.99257180873304        0.0                     # C
187  1    30.262554376782745       35.99257180873304        0.0                     # C
188  1    32.683631410953865       37.39034158771297        0.0                     # C
189  1    35.104568668147095       37.39034158771297        0.0                     # C
190  1    37.52564570231822        37.39034158771297        0.0                     # C
191  1    39.94658295951145        37.39034158771297        0.0                     # C
192  1    42.36765999368258        37.39034158771297        0.0                     # C
193  1    44.78859725087581        37.39034158771297        0.0                     # C
194  1    47.20967428504693        37.39034158771297        0.0                     # C
195  1    49.63061154224016        37.39034158771297        0.0                     # C
196  1    52.05168857641129        37.39034158771297        0.0                     # C
197  1    54.47262583360452        37.39034158771297        0.0                     # C
198  1    56.893702867775644       37.39034158771297        0.0                     # C
199  1    59.314640124968875       37.39034158771297        0.0                     # C
200  1    61.735717159139995       37.39034158771297        0.0                     # C
201  1    1.2104686285966142       37.39034158771297        0.0                     # C
202  1    3.6315456627677403       37.39034158771297        0.0                     # C
203  1    6.052482919960968        37.39034158771297        0.0                     # C
204  1    8.473559954132094        37.39034158771297        0.0                     # C
205  1    10.894497211325325       37.39034158771297        0.0                     # C
206  1    13.315574245496451       37.39034158771297        0.0                     # C
207  1    15.736511502689677       37.39034158771297        0.0                     # C
208  1    18.157588536860803       37.39034158771297        0.0                     # C
209  1    20.578525794054034       37.39034158771297        0.0                     # C
210  1    22.99960282822516        37.39034158771297        0.0                     # C
211  1    25.420540085418388       37.39034158771297        0.0                     # C
212  1    27.841617119589515       37.39034158771297        0.0                     # C
213  1    30.262554376782745       37.39034158771297        0.0                     # C
214  1    31.473162782357257       38.08922647720293        0.0                     # C
215  1    33.89410003955048        38.08922647720293        0.0                     # C
216  1    36.31517707372161        38.08922647720293        0.0                     # C
217  1    38.73611433091484        38.08922647720293        0.0                     # C
218  1    41.157191365085964       38.08922647720293        0.0                     # C
219  1    43.578128622279195       38.08922647720293        0.0                     # C
220  1    45.99920565645032        38.08922647720293        0.0                     # C
221  1    48.420142913643545       38.08922647720293        0.0                     # C
222  1    50.84121994781467        38.08922647720293        0.0                     # C
223  1    53.2621572050079         38.08922647720293        0.0                     # C
224  1    55.68323423917903        38.08922647720293        0.0                     # C
225  1    58.10417149637226        38.08922647720293        0.0                     # C
226  1    60.52524853054338        38.08922647720293        0.0                     # C
227  1    62.94618578773661        38.08922647720293        0.0                     # C
228  1    2.4210770341711263       38.08922647720293        0.0                     # C
229  1    4.842014291364355        38.08922647720293        0.0                     # C
230  1    7.2630913255354805       38.08922647720293        0.0                     # C
231  1    9.68402858272871         38.08922647720293        0.0                     # C
232  1    12.105105616899834       38.08922647720293        0.0                     # C
233  1    14.526042874093065       38.08922647720293        0.0                     # C
234  1    16.947119908264188       38.08922647720293        0.0                     # C
235  1    19.36805716545742        38.08922647720293        0.0                     # C
236  1    21.789134199628545       38.08922647720293        0.0                     # C
237  1    24.210071456821773       38.08922647720293        0.0                     # C
238  1    26.631148490992903       38.08922647720293        0.0                     # C
239  1    29.05208574818613        38.08922647720293        0.0                     # C
240  1    33.89410003955048        39.48699625618285        0.0                     # C
241  1    36.31517707372161        39.48699625618285        0.0                     # C
242  1    38.73611433091484        39.48699625618285        0.0                     # C
243  1    41.157191365085964       39.48699625618285        0.0                     # C
244  1    43.578128622279195       39.48699625618285        0.0                     # C
245  1    45.99920565645032        39.48699625618285        0.0                     # C
246  1    48.420142913643545       39.48699625618285        0.0                     # C
247  1    50.84121994781467        39.48699625618285        0.0                     # C
248  1    53.2621572050079         39.48699625618285        0.0                     # C
249  1    55.68323423917903        39.48699625618285        0.0                     # C
250  1    58.10417149637226        39.48699625618285        0.0                     # C
251  1    60.52524853054338        39.48699625618285        0.0                     # C
252  1    62.94618578773661        39.48699625618285        0.0                     # C
253  1    2.4210770341711263       39.48699625618285        0.0                     # C
254  1    4.842014291364355        39.48699625618285        0.0                     # C
255  1    7.2630913255354805       39.48699625618285        0.0                     # C
256  1    9.68402858272871         39.48699625618285        0.0                     # C
257  1    12.105105616899834       39.48699625618285        0.0                     # C
258  1    14.526042874093065       39.48699625618285        0.0                     # C
259  1    16.947119908264188       39.48699625618285        0.0                     # C
260  1    19.36805716545742        39.48699625618285        0.0                     # C
261  1    21.789134199628545       39.48699625618285        0.0                     # C
262  1    24.210071456821773       39.48699625618285        0.0                     # C
263  1    26.631148490992903       39.48699625618285        0.0                     # C
264  1    29.05208574818613        39.48699625618285        0.0                     # C
265  1    31.473162782357257       39.48699625618285        0.0                     # C
266  1    32.683631410953865       40.185881145672816       0.0                     # C
267  1    35.104568668147095       40.185881145672816       0.0                     # C
268  1    37.52564570231822        40.185881145672816       0.0                     # C
269  1    39.94658295951145        40.185881145672816       0.0                     # C
270  1    42.36765999368258        40.185881145672816       0.0                     # C
271  1    44.78859725087581        40.185881145672816       0.0                     # C
272  1    47.20967428504693        40.185881145672816       0.0                     # C
273  1    49.63061154224016        40.185881145672816       0.0                     # C
274  1    52.05168857641129        40.185881145672816       0.0                     # C
275  1    54.47262583360452        40.185881145672816       0.0                     # C
276  1    56.893702867775644       40.185881145672816       0.0                     # C
277  1    59.314640124968875       40.185881145672816       0.0                     # C
278  1    61.735717159139995       40.185881145672816       0.0                     # C
279  1    1.2104686285966142       40.185881145672816       0.0                     # C
280  1    3.6315456627677403       40.185881145672816       0.0                     # C
281  1    6.052482919960968        40.185881145672816       0.0                     # C
282  1    8.473559954132094        40.185881145672816       0.0                     # C
283  1    10.894497211325325       40.185881145672816       0.0                     # C
284  1    13.315574245496451       40.185881145672816       0.0                     # C
285  1    15.736511502689677       40.185881145672816       0.0                     # C
286  1    18.157588536860803       40.185881145672816       0.0                     # C
287  1    20.578525794054034       40.185881145672816       0.0                     # C
288  1    22.99960282822516        40.185881145672816       0.0                     # C
289  1    25.420540085418388       40.185881145672816       0.0                     # C
290  1    27.841617119589515       40.185881145672816       0.0                     # C
291  1    30.262554376782745       40.185881145672816       0.0                     # C
292  1    32.683631410953865       41.58365092465274        0.0                     # C
293  1    35.104568668147095       41.58365092465274        0.0                     # C
294  1    37.52564570231822        41.58365092465274        0.0                     # C
295  1    39.94658295951145        41.58365092465274        0.0                     # C
296  1    42.36765999368258        41.58365092465274        0.0                     # C
297  1    44.78859725087581        41.58365092465274        0.0                     # C
298  1    47.20967428504693        41.58365092465274        0.0                     # C
299  1    49.63061154224016        41.58365092465274        0.0                     # C
300  1    52.05168857641129        41.58365092465274        0.0                     # C
301  1    54.47262583360452        41.58365092465274        0.0                     # C
302  1    56.893702867775644       41.58365092465274        0.0                     # C
303  1    59.314640124968875       41.58365092465274        0.0                     # C
304  1    61.735717159139995       41.58365092465274        0.0                     # C
305  1    1.2104686285966142       41.58365092465274        0.0                     # C
306  1    3.6315456627677403       41.58365092465274        0.0                     # C
307  1    6.052482919960968        41.58365092465274        0.0                     # C
308  1    8.473559954132094        41.58365092465274        0.0                     # C
309  1    10.894497211325325       41.58365092465274        0.0                     # C
310  1    13.315574245496451       41.58365092465274        0.0                     # C
311  1    15.736511502689677       41.58365092465274        0.0                     # C
312  1    18.157588536860803       41.58365092465274        0.0                     # C
313  1    20.578525794054034       41.58365092465274        0.0                     # C
314  1    22.99960282822516        41.58365092465274        0.0                     # C
315  1    25.420540085418388       41.58365092465274        0.0                     # C
316  1    27.841617119589515       41.58365092465274        0.0                     # C
317  1    30.262554376782745       41.58365092465274        0.0                     # C
318  1    31.473162782357257       42.282535814142705       0.0                     # C
319  1    33.89410003955048        42.282535814142705       0.0                     # C
320  1    36.31517707372161        42.282535814142705       0.0                     # C
321  1    38.73611433091484        42.282535814142705       0.0                     # C
322  1    41.157191365085964       42.282535814142705       0.0                     # C
323  1    43.578128622279195       42.282535814142705       0.0                     # C
324  1    45.99920565645032        42.282535814142705       0.0                     # C
325  1    48.420142913643545       42.282535814142705       0.0                     # C
326  1    50.84121994781467        42.282535814142705       0.0                     # C
327  1    53.2621572050079         42.282535814142705       0.0                     # C
328  1    55.68323423917903        42.282535814142705       0.0                     # C
329  1    58.10417149637226        42.282535814142705       0.0                     # C
330  1    60.52524853054338        42.282535814142705       0.0                     # C
331  1    62.94618578773661        42.282535814142705       0.0                     # C
332  1    2.4210770341711263       42.282535814142705       0.0                     # C
333  1    4.842014291364355        42.282535814142705       0.0                     # C
334  1    7.2630913255354805       42.282535814142705       0.0                     # C
335  1    9.68402858272871         42.282535814142705       0.0                     # C
336  1    12.105105616899834       42.282535814142705       0.0                     # C
337  1    14.526042874093065       42.282535814142705       0.0                     # C
338  1    16.947119908264188       42.282535814142705       0.0                     # C