DATA FILE Produced from netmc results (cf David Morley)
7860 atoms
26200 bonds
0 angles
0 dihedrals
0 impropers
2 atom types
0 bond types
2 bond types
0 angle types
0 dihedral types
0 improper types
0.00000 259.7095183921202 xlo xhi
0.00000 225.4097163567978 ylo yhi
0.0000 200.0000 zlo zhi

# Pair Coeffs
#
# 1  O
# 2  Si

# Bond Coeffs
# 
# 1  O-O
# 2  Si-O
# 3  O-O rep
# 4  Si-Si rep

 Masses

1 28.10000 # O 
2 32.01000 # Si

 Atoms # molecular

1    1    1    164.8154348576955        119.9295285887835        8.040569334518267        # O
2    2    1    174.80454619208547       119.9295285887835        8.040569334518267        # O
3    3    1    184.79308080854537       119.9295285887835        8.040569334518267        # O
4    4    1    194.78219214293534       119.9295285887835        8.040569334518267        # O
5    5    1    204.77072675939527       119.9295285887835        8.040569334518267        # O
6    6    1    214.75983809378522       119.9295285887835        8.040569334518267        # O
7    7    1    224.74837271024515       119.9295285887835        8.040569334518267        # O
8    8    1    234.7374840446351        119.9295285887835        8.040569334518267        # O
9    9    1    244.72601866109503       119.9295285887835        8.040569334518267        # O
10   10   1    254.71512999548497       119.9295285887835        8.040569334518267        # O
11   11   1    4.994267308229967        119.9295285887835        8.040569334518267        # O
12   12   1    14.983378642619916       119.9295285887835        8.040569334518267        # O
13   13   1    24.97191325907985        119.9295285887835        8.040569334518267        # O
14   14   1    34.9610245934698         119.9295285887835        8.040569334518267        # O
15   15   1    44.94955920992973        119.9295285887835        8.040569334518267        # O
16   16   1    54.938670544319685       119.9295285887835        8.040569334518267        # O
17   17   1    64.92720516077961        119.9295285887835        8.040569334518267        # O
18   18   1    74.91631649516957        119.9295285887835        8.040569334518267        # O
19   19   1    84.9048511116295         119.9295285887835        8.040569334518267        # O
20   20   1    94.89396238868592        119.9295285887835        8.040569334518267        # O
21   21   1    104.88249700514585       119.9295285887835        8.040569334518267        # O
22   22   1    159.82116754946554       122.81939671853722       8.040569334518267        # O
23   23   1    169.8102788838555        122.81939671853722       8.040569334518267        # O
24   24   1    179.79881350031542       122.81939671853722       8.040569334518267        # O
25   25   1    189.78792483470536       122.81939671853722       8.040569334518267        # O
26   26   1    199.7764594511653        122.81939671853722       8.040569334518267        # O
27   27   1    209.76557078555524       122.81939671853722       8.040569334518267        # O
28   28   1    219.75410540201517       122.81939671853722       8.040569334518267        # O
29   29   1    229.74321673640515       122.81939671853722       8.040569334518267        # O
30   30   1    239.73175135286505       122.81939671853722       8.040569334518267        # O
31   31   1    249.72086268725502       122.81939671853722       8.040569334518267        # O
32   32   1    259.7093973037149        122.81939671853722       8.040569334518267        # O
33   33   1    9.989111334389948        122.81939671853722       8.040569334518267        # O
34   34   1    19.97764595084988        122.81939671853722       8.040569334518267        # O
35   35   1    29.966757285239833       122.81939671853722       8.040569334518267        # O
36   36   1    39.95529190169976        122.81939671853722       8.040569334518267        # O
37   37   1    49.94440323608971        122.81939671853722       8.040569334518267        # O
38   38   1    59.93293785254965        122.81939671853722       8.040569334518267        # O
39   39   1    69.9220491869396         122.81939671853722       8.040569334518267        # O
40   40   1    79.91058380339952        122.81939671853722       8.040569334518267        # O
41   41   1    89.89969508045596        122.81939671853722       8.040569334518267        # O
42   42   1    99.88822969691589        122.81939671853722       8.040569334518267        # O
43   43   1    109.87734103130583       122.81939671853722       8.040569334518267        # O
44   44   1    159.82116754946554       128.5991330353782        8.040569334518267        # O
45   45   1    169.8102788838555        128.5991330353782        8.040569334518267        # O
46   46   1    179.79881350031542       128.5991330353782        8.040569334518267        # O
47   47   1    189.78792483470536       128.5991330353782        8.040569334518267        # O
48   48   1    199.7764594511653        128.5991330353782        8.040569334518267        # O
49   49   1    209.76557078555524       128.5991330353782        8.040569334518267        # O
50   50   1    219.75410540201517       128.5991330353782        8.040569334518267        # O
51   51   1    229.74321673640515       128.5991330353782        8.040569334518267        # O
52   52   1    239.73175135286505       128.5991330353782        8.040569334518267        # O
53   53   1    249.72086268725502       128.5991330353782        8.040569334518267        # O
54   54   1    259.7093973037149        128.5991330353782        8.040569334518267        # O
55   55   1    9.989111334389948        128.5991330353782        8.040569334518267        # O
56   56   1    19.97764595084988        128.5991330353782        8.040569334518267        # O
57   57   1    29.966757285239833       128.5991330353782        8.040569334518267        # O
58   58   1    39.95529190169976        128.5991330353782        8.040569334518267        # O
59   59   1    49.94440323608971        128.5991330353782        8.040569334518267        # O
60   60   1    59.93293785254965        128.5991330353782        8.040569334518267        # O
61   61   1    69.9220491869396         128.5991330353782        8.040569334518267        # O
62   62   1    79.91058380339952        128.5991330353782        8.040569334518267        # O
63   63   1    89.89969508045596        128.5991330353782        8.040569334518267        # O
64   64   1    99.88822969691589        128.5991330353782        8.040569334518267        # O
65   65   1    109.87734103130583       128.5991330353782        8.040569334518267        # O
66   66   1    164.8154348576955        131.48900122246542       8.040569334518267        # O
67   67   1    174.80454619208547       131.48900122246542       8.040569334518267        # O
68   68   1    184.79308080854537       131.48900122246542       8.040569334518267        # O
69   69   1    194.78219214293534       131.48900122246542       8.040569334518267        # O
70   70   1    204.77072675939527       131.48900122246542       8.040569334518267        # O
71   71   1    214.75983809378522       131.48900122246542       8.040569334518267        # O
72   72   1    224.74837271024515       131.48900122246542       8.040569334518267        # O
73   73   1    234.7374840446351        131.48900122246542       8.040569334518267        # O
74   74   1    244.72601866109503       131.48900122246542       8.040569334518267        # O
75   75   1    254.71512999548497       131.48900122246542       8.040569334518267        # O
76   76   1    4.994267308229967        131.48900122246542       8.040569334518267        # O
77   77   1    14.983378642619916       131.48900122246542       8.040569334518267        # O
78   78   1    24.97191325907985        131.48900122246542       8.040569334518267        # O
79   79   1    34.9610245934698         131.48900122246542       8.040569334518267        # O
80   80   1    44.94955920992973        131.48900122246542       8.040569334518267        # O
81   81   1    54.938670544319685       131.48900122246542       8.040569334518267        # O
82   82   1    64.92720516077961        131.48900122246542       8.040569334518267        # O
83   83   1    74.91631649516957        131.48900122246542       8.040569334518267        # O
84   84   1    84.9048511116295         131.48900122246542       8.040569334518267        # O
85   85   1    94.89396238868592        131.48900122246542       8.040569334518267        # O
86   86   1    104.88249700514585       131.48900122246542       8.040569334518267        # O
87   87   1    154.82690024123556       137.26873753930641       8.040569334518267        # O
88   88   1    164.8154348576955        137.26873753930641       8.040569334518267        # O
89   89   1    174.80454619208547       137.26873753930641       8.040569334518267        # O
90   90   1    184.79308080854537       137.26873753930641       8.040569334518267        # O
91   91   1    194.78219214293534       137.26873753930641       8.040569334518267        # O
92   92   1    204.77072675939527       137.26873753930641       8.040569334518267        # O
93   93   1    214.75983809378522       137.26873753930641       8.040569334518267        # O
94   94   1    224.74837271024515       137.26873753930641       8.040569334518267        # O
95   95   1    234.7374840446351        137.26873753930641       8.040569334518267        # O
96   96   1    244.72601866109503       137.26873753930641       8.040569334518267        # O
97   97   1    254.71512999548497       137.26873753930641       8.040569334518267        # O
98   98   1    4.994267308229967        137.26873753930641       8.040569334518267        # O
99   99   1    14.983378642619916       137.26873753930641       8.040569334518267        # O
100  100  1    24.97191325907985        137.26873753930641       8.040569334518267        # O
101  101  1    34.9610245934698         137.26873753930641       8.040569334518267        # O
102  102  1    44.94955920992973        137.26873753930641       8.040569334518267        # O
103  103  1    54.938670544319685       137.26873753930641       8.040569334518267        # O
104  104  1    64.92720516077961        137.26873753930641       8.040569334518267        # O
105  105  1    74.91631649516957        137.26873753930641       8.040569334518267        # O
106  106  1    84.9048511116295         137.26873753930641       8.040569334518267        # O
107  107  1    94.89396238868592        137.26873753930641       8.040569334518267        # O
108  108  1    104.88249700514585       137.26873753930641       8.040569334518267        # O
109  109  1    114.8716083395358        137.26873753930641       8.040569334518267        # O
110  110  1    129.8549869821557        140.1586056690601        8.040569334518267        # O
111  111  1    139.84352159861564       140.1586056690601        8.040569334518267        # O
112  112  1    149.83263293300558       140.1586056690601        8.040569334518267        # O
113  113  1    159.82116754946554       140.1586056690601        8.040569334518267        # O
114  114  1    169.8102788838555        140.1586056690601        8.040569334518267        # O
115  115  1    179.79881350031542       140.1586056690601        8.040569334518267        # O
116  116  1    189.78792483470536       140.1586056690601        8.040569334518267        # O
117  117  1    199.7764594511653        140.1586056690601        8.040569334518267        # O
118  118  1    209.76557078555524       140.1586056690601        8.040569334518267        # O
119  119  1    219.75410540201517       140.1586056690601        8.040569334518267        # O
120  120  1    229.74321673640515       140.1586056690601        8.040569334518267        # O
121  121  1    239.73175135286505       140.1586056690601        8.040569334518267        # O
122  122  1    249.72086268725502       140.1586056690601        8.040569334518267        # O
123  123  1    259.7093973037149        140.1586056690601        8.040569334518267        # O
124  124  1    9.989111334389948        140.1586056690601        8.040569334518267        # O
125  125  1    19.97764595084988        140.1586056690601        8.040569334518267        # O
126  126  1    29.966757285239833       140.1586056690601        8.040569334518267        # O
127  127  1    39.95529190169976        140.1586056690601        8.040569334518267        # O
128  128  1    49.94440323608971        140.1586056690601        8.040569334518267        # O
129  129  1    59.93293785254965        140.1586056690601        8.040569334518267        # O
130  130  1    69.9220491869396         140.1586056690601        8.040569334518267        # O
131  131  1    79.91058380339952        140.1586056690601        8.040569334518267        # O
132  132  1    89.89969508045596        140.1586056690601        8.040569334518267        # O
133  133  1    99.88822969691589        140.1586056690601        8.040569334518267        # O
134  134  1    109.87734103130583       140.1586056690601        8.040569334518267        # O
135  135  1    119.86587564776576       140.1586056690601        8.040569334518267        # O
136  136  1    139.84352159861564       145.9383419859011        8.040569334518267        # O
137  137  1    149.83263293300558       145.9383419859011        8.040569334518267        # O
138  138  1    159.82116754946554       145.9383419859011        8.040569334518267        # O
139  139  1    169.8102788838555        145.9383419859011        8.040569334518267        # O
140  140  1    179.79881350031542       145.9383419859011        8.040569334518267        # O
141  141  1    189.78792483470536       145.9383419859011        8.040569334518267        # O
142  142  1    199.7764594511653        145.9383419859011        8.040569334518267        # O
143  143  1    209.76557078555524       145.9383419859011        8.040569334518267        # O
144  144  1    219.75410540201517       145.9383419859011        8.040569334518267        # O
145  145  1    229.74321673640515       145.9383419859011        8.040569334518267        # O
146  146  1    239.73175135286505       145.9383419859011        8.040569334518267        # O
147  147  1    249.72086268725502       145.9383419859011        8.040569334518267        # O
148  148  1    259.7093973037149        145.9383419859011        8.040569334518267        # O
149  149  1    9.989111334389948        145.9383419859011        8.040569334518267        # O
150  150  1    19.97764595084988        145.9383419859011        8.040569334518267        # O
151  151  1    29.966757285239833       145.9383419859011        8.040569334518267        # O
152  152  1    39.95529190169976        145.9383419859011        8.040569334518267        # O
153  153  1    49.94440323608971        145.9383419859011        8.040569334518267        # O
154  154  1    59.93293785254965        145.9383419859011        8.040569334518267        # O
155  155  1    69.9220491869396         145.9383419859011        8.040569334518267        # O
156  156  1    79.91058380339952        145.9383419859011        8.040569334518267        # O
157  157  1    89.89969508045596        145.9383419859011        8.040569334518267        # O
158  158  1    99.88822969691589        145.9383419859011        8.040569334518267        # O
159  159  1    109.87734103130583       145.9383419859011        8.040569334518267        # O
160  160  1    119.86587564776576       145.9383419859011        8.040569334518267        # O
161  161  1    129.8549869821557        145.9383419859011        8.040569334518267        # O
162  162  1    134.8492542903857        148.82821017298835       8.040569334518267        # O
163  163  1    144.83778890684562       148.82821017298835       8.040569334518267        # O
164  164  1    154.82690024123556       148.82821017298835       8.040569334518267        # O
165  165  1    164.8154348576955        148.82821017298835       8.040569334518267        # O
166  166  1    174.80454619208547       148.82821017298835       8.040569334518267        # O
167  167  1    184.79308080854537       148.82821017298835       8.040569334518267        # O
168  168  1    194.78219214293534       148.82821017298835       8.040569334518267        # O
169  169  1    204.77072675939527       148.82821017298835       8.040569334518267        # O
170  170  1    214.75983809378522       148.82821017298835       8.040569334518267        # O
171  171  1    224.74837271024515       148.82821017298835       8.040569334518267        # O
172  172  1    234.7374840446351        148.82821017298835       8.040569334518267        # O
173  173  1    244.72601866109503       148.82821017298835       8.040569334518267        # O
174  174  1    254.71512999548497       148.82821017298835       8.040569334518267        # O
175  175  1    4.994267308229967        148.82821017298835       8.040569334518267        # O
176  176  1    14.983378642619916       148.82821017298835       8.040569334518267        # O
177  177  1    24.97191325907985        148.82821017298835       8.040569334518267        # O
178  178  1    34.9610245934698         148.82821017298835       8.040569334518267        # O
179  179  1    44.94955920992973        148.82821017298835       8.040569334518267        # O
180  180  1    54.938670544319685       148.82821017298835       8.040569334518267        # O
181  181  1    64.92720516077961        148.82821017298835       8.040569334518267        # O
182  182  1    74.91631649516957        148.82821017298835       8.040569334518267        # O
183  183  1    84.9048511116295         148.82821017298835       8.040569334518267        # O
184  184  1    94.89396238868592        148.82821017298835       8.040569334518267        # O
185  185  1    104.88249700514585       148.82821017298835       8.040569334518267        # O
186  186  1    114.8716083395358        148.82821017298835       8.040569334518267        # O
187  187  1    124.86014295599573       148.82821017298835       8.040569334518267        # O
188  188  1    134.8492542903857        154.6079464898293        8.040569334518267        # O
189  189  1    144.83778890684562       154.6079464898293        8.040569334518267        # O
190  190  1    154.82690024123556       154.6079464898293        8.040569334518267        # O
191  191  1    164.8154348576955        154.6079464898293        8.040569334518267        # O
192  192  1    174.80454619208547       154.6079464898293        8.040569334518267        # O
193  193  1    184.79308080854537       154.6079464898293        8.040569334518267        # O
194  194  1    194.78219214293534       154.6079464898293        8.040569334518267        # O
195  195  1    204.77072675939527       154.6079464898293        8.040569334518267        # O
196  196  1    214.75983809378522       154.6079464898293        8.040569334518267        # O
197  197  1    224.74837271024515       154.6079464898293        8.040569334518267        # O
198  198  1    234.7374840446351        154.6079464898293        8.040569334518267        # O
199  199  1    244.72601866109503       154.6079464898293        8.040569334518267        # O
200  200  1    254.71512999548497       154.6079464898293        8.040569334518267        # O
201  201  1    4.994267308229967        154.6079464898293        8.040569334518267        # O
202  202  1    14.983378642619916       154.6079464898293        8.040569334518267        # O
203  203  1    24.97191325907985        154.6079464898293        8.040569334518267        # O
204  204  1    34.9610245934698         154.6079464898293        8.040569334518267        # O
205  205  1    44.94955920992973        154.6079464898293        8.040569334518267        # O
206  206  1    54.938670544319685       154.6079464898293        8.040569334518267        # O
207  207  1    64.92720516077961        154.6079464898293        8.040569334518267        # O
208  208  1    74.91631649516957        154.6079464898293        8.040569334518267        # O
209  209  1    84.9048511116295         154.6079464898293        8.040569334518267        # O
210  210  1    94.89396238868592        154.6079464898293        8.040569334518267        # O
211  211  1    104.88249700514585       154.6079464898293        8.040569334518267        # O
212  212  1    114.8716083395358        154.6079464898293        8.040569334518267        # O
213  213  1    124.86014295599573       154.6079464898293        8.040569334518267        # O
214  214  1    129.8549869821557        157.49781461958304       8.040569334518267        # O
215  215  1    139.84352159861564       157.49781461958304       8.040569334518267        # O
216  216  1    149.83263293300558       157.49781461958304       8.040569334518267        # O
217  217  1    159.82116754946554       157.49781461958304       8.040569334518267        # O
218  218  1    169.8102788838555        157.49781461958304       8.040569334518267        # O
219  219  1    179.79881350031542       157.49781461958304       8.040569334518267        # O
220  220  1    189.78792483470536       157.49781461958304       8.040569334518267        # O
221  221  1    199.7764594511653        157.49781461958304       8.040569334518267        # O
222  222  1    209.76557078555524       157.49781461958304       8.040569334518267        # O
223  223  1    219.75410540201517       157.49781461958304       8.040569334518267        # O
224  224  1    229.74321673640515       157.49781461958304       8.040569334518267        # O
225  225  1    239.73175135286505       157.49781461958304       8.040569334518267        # O
226  226  1    249.72086268725502       157.49781461958304       8.040569334518267        # O
227  227  1    259.7093973037149        157.49781461958304       8.040569334518267        # O
228  228  1    9.989111334389948        157.49781461958304       8.040569334518267        # O
229  229  1    19.97764595084988        157.49781461958304       8.040569334518267        # O
230  230  1    29.966757285239833       157.49781461958304       8.040569334518267        # O
231  231  1    39.95529190169976        157.49781461958304       8.040569334518267        # O
232  232  1    49.94440323608971        157.49781461958304       8.040569334518267        # O
233  233  1    59.93293785254965        157.49781461958304       8.040569334518267        # O
234  234  1    69.9220491869396         157.49781461958304       8.040569334518267        # O
235  235  1    79.91058380339952        157.49781461958304       8.040569334518267        # O
236  236  1    89.89969508045596        157.49781461958304       8.040569334518267        # O
237  237  1    99.88822969691589        157.49781461958304       8.040569334518267        # O
238  238  1    109.87734103130583       157.49781461958304       8.040569334518267        # O
239  239  1    119.86587564776576       157.49781461958304       8.040569334518267        # O
240  240  1    139.84352159861564       163.277550936424         8.040569334518267        # O
241  241  1    149.83263293300558       163.277550936424         8.040569334518267        # O
242  242  1    159.82116754946554       163.277550936424         8.040569334518267        # O
243  243  1    169.8102788838555        163.277550936424         8.040569334518267        # O
244  244  1    179.79881350031542       163.277550936424         8.040569334518267        # O
245  245  1    189.78792483470536       163.277550936424         8.040569334518267        # O
246  246  1    199.7764594511653        163.277550936424         8.040569334518267        # O
247  247  1    209.76557078555524       163.277550936424         8.040569334518267        # O
248  248  1    219.75410540201517       163.277550936424         8.040569334518267        # O
249  249  1    229.74321673640515       163.277550936424         8.040569334518267        # O
250  250  1    239.73175135286505       163.277550936424         8.040569334518267        # O
251  251  1    249.72086268725502       163.277550936424         8.040569334518267        # O
252  252  1    259.7093973037149        163.277550936424         8.040569334518267        # O
253  253  1    9.989111334389948        163.277550936424         8.040569334518267        # O
254  254  1    19.97764595084988        163.277550936424         8.040569334518267        # O
255  255  1    29.966757285239833       163.277550936424         8.040569334518267        # O
256  256  1    39.95529190169976        163.277550936424         8.040569334518267        # O
257  257  1    49.94440323608971        163.277550936424         8.040569334518267        # O
258  258  1    59.93293785254965        163.277550936424         8.040569334518267        # O
259  259  1    69.9220491869396         163.277550936424         8.040569334518267        # O
260  260  1    79.91058380339952        163.277550936424         8.040569334518267        # O
261  261  1    89.89969508045596        163.277550936424         8.040569334518267        # O
262  262  1    99.88822969691589        163.277550936424         8.040569334518267        # O
263  263  1    109.87734103130583       163.277550936424         8.040569334518267        # O
264  264  1    119.86587564776576       163.277550936424         8.040569334518267        # O
265  265  1    129.8549869821557        163.277550936424         8.040569334518267        # O
266  266  1    134.8492542903857        166.16741912351125       8.040569334518267        # O
267  267  1    144.83778890684562       166.16741912351125       8.040569334518267        # O
268  268  1    154.82690024123556       166.16741912351125       8.040569334518267        # O
269  269  1    164.8154348576955        166.16741912351125       8.040569334518267        # O
270  270  1    174.80454619208547       166.16741912351125       8.040569334518267        # O
271  271  1    184.79308080854537       166.16741912351125       8.040569334518267        # O
272  272  1    194.78219214293534       166.16741912351125       8.040569334518267        # O
273  273  1    204.77072675939527       166.16741912351125       8.040569334518267        # O
274  274  1    214.75983809378522       166.16741912351125       8.040569334518267        # O
275  275  1    224.74837271024515       166.16741912351125       8.040569334518267        # O
276  276  1    234.7374840446351        166.16741912351125       8.040569334518267        # O
277  277  1    244.72601866109503       166.16741912351125       8.040569334518267        # O
278  278  1    254.71512999548497       166.16741912351125       8.040569334518267        # O
279  279  1    4.994267308229967        166.16741912351125       8.040569334518267        # O
280  280  1    14.983378642619916       166.16741912351125       8.040569334518267        # O
281  281  1    24.97191325907985        166.16741912351125       8.040569334518267        # O
282  282  1    34.9610245934698         166.16741912351125       8.040569334518267        # O
283  283  1    44.94955920992973        166.16741912351125       8.040569334518267        # O
284  284  1    54.938670544319685       166.16741912351125       8.040569334518267        # O
285  285  1    64.92720516077961        166.16741912351125       8.040569334518267        # O
286  286  1    74.91631649516957        166.16741912351125       8.040569334518267        # O
287  287  1    84.9048511116295         166.16741912351125       8.040569334518267        # O
288  288  1    94.89396238868592        166.16741912351125       8.040569334518267        # O
289  289  1    104.88249700514585       166.16741912351125       8.040569334518267        # O
290  290  1    114.8716083395358        166.16741912351125       8.040569334518267        # O
291  291  1    124.86014295599573       166.16741912351125       8.040569334518267        # O
292  292  1    134.8492542903857        171.94715544035222       8.040569334518267        # O
293  293  1    144.83778890684562       171.94715544035222       8.040569334518267        # O
294  294  1    154.82690024123556       171.94715544035222       8.040569334518267        # O
295  295  1    164.8154348576955        171.94715544035222       8.040569334518267        # O
296  296  1    174.80454619208547       171.94715544035222       8.040569334518267        # O
297  297  1    184.79308080854537       171.94715544035222       8.040569334518267        # O
298  298  1    194.78219214293534       171.94715544035222       8.040569334518267        # O
299  299  1    204.77072675939527       171.94715544035222       8.040569334518267        # O
300  300  1    214.75983809378522       171.94715544035222       8.040569334518267        # O
301  301  1    224.74837271024515       171.94715544035222       8.040569334518267        # O
302  302  1    234.7374840446351        171.94715544035222       8.040569334518267        # O
303  303  1    244.72601866109503       171.94715544035222       8.040569334518267        # O
304  304  1    254.71512999548497       171.94715544035222       8.040569334518267        # O
305  305  1    4.994267308229967        171.94715544035222       8.040569334518267        # O
306  306  1    14.983378642619916       171.94715544035222       8.040569334518267        # O
307  307  1    24.97191325907985        171.94715544035222       8.040569334518267        # O
308  308  1    34.9610245934698         171.94715544035222       8.040569334518267        # O
309  309  1    44.94955920992973        171.94715544035222       8.040569334518267        # O
310  310  1    54.938670544319685       171.94715544035222       8.040569334518267        # O
311  311  1    64.92720516077961        171.94715544035222       8.040569334518267        # O
312  312  1    74.91631649516957        171.94715544035222       8.040569334518267        # O
313  313  1    84.9048511116295         171.94715544035222       8.040569334518267        # O
314  314  1    94.89396238868592        171.94715544035222       8.040569334518267        # O