DATA FILE Produced from netmc results (cf David Morley)
404 atoms
606 bonds
1212 angles
0 dihedrals
0 impropers
1 atom types
1 bond types
1 angle types
0 dihedral types
0 improper types
0.00000 29.64757357 xlo xhi
0.00000 25.76719685 ylo yhi

# Pair Coeffs
#
# 1  Si

# Bond Coeffs
# 
# 1  Si-Si

# Angle Coeffs
# 
# 1  Si-Si-Si

 Masses

1 32.01000 # Si

 Atoms # molecular

1    1    1    21.30921025              14.22563993              0.0                     # Si
2    2    1    23.16212924              14.22563993              0.0                     # Si
3    3    1    25.01515521              14.22563993              0.0                     # Si
4    4    1    26.8680742               14.22563993              0.0                     # Si
5    5    1    28.72110017              14.22563993              0.0                     # Si
6    6    1    0.92645949               14.22563993              0.0                     # Si
7    7    1    2.77948546               14.22563993              0.0                     # Si
8    8    1    4.63240445               14.22563993              0.0                     # Si
9    9    1    6.48543042               14.22563993              0.0                     # Si
10   10   1    8.33834941               14.22563993              0.0                     # Si
11   11   1    22.23566975              14.76245653              0.0                     # Si
12   12   1    24.08869572              14.76245653              0.0                     # Si
13   13   1    25.9416147               14.76245653              0.0                     # Si
14   14   1    27.79464067              14.76245653              0.0                     # Si
15   15   1    29.64755966              14.76245653              0.0                     # Si
16   16   1    1.85302597               14.76245653              0.0                     # Si
17   17   1    3.70594496               14.76245653              0.0                     # Si
18   18   1    5.55897093               14.76245653              0.0                     # Si
19   19   1    7.41188992               14.76245653              0.0                     # Si
20   20   1    20.38275076              15.83608973              0.0                     # Si
21   21   1    22.23566975              15.83608973              0.0                     # Si
22   22   1    24.08869572              15.83608973              0.0                     # Si
23   23   1    25.9416147               15.83608973              0.0                     # Si
24   24   1    27.79464067              15.83608973              0.0                     # Si
25   25   1    29.64755966              15.83608973              0.0                     # Si
26   26   1    1.85302597               15.83608973              0.0                     # Si
27   27   1    3.70594496               15.83608973              0.0                     # Si
28   28   1    5.55897093               15.83608973              0.0                     # Si
29   29   1    7.41188992               15.83608973              0.0                     # Si
30   30   1    9.26491589               15.83608973              0.0                     # Si
31   31   1    19.45618428              16.37290633              0.0                     # Si
32   32   1    21.30921025              16.37290633              0.0                     # Si
33   33   1    23.16212924              16.37290633              0.0                     # Si
34   34   1    25.01515521              16.37290633              0.0                     # Si
35   35   1    26.8680742               16.37290633              0.0                     # Si
36   36   1    28.72110017              16.37290633              0.0                     # Si
37   37   1    0.92645949               16.37290633              0.0                     # Si
38   38   1    2.77948546               16.37290633              0.0                     # Si
39   39   1    4.63240445               16.37290633              0.0                     # Si
40   40   1    6.48543042               16.37290633              0.0                     # Si
41   41   1    8.33834941               16.37290633              0.0                     # Si
42   42   1    10.19137538              16.37290633              0.0                     # Si
43   43   1    17.60326529              17.44653953              0.0                     # Si
44   44   1    19.45618428              17.44653953              0.0                     # Si
45   45   1    21.30921025              17.44653953              0.0                     # Si
46   46   1    23.16212924              17.44653953              0.0                     # Si
47   47   1    25.01515521              17.44653953              0.0                     # Si
48   48   1    26.8680742               17.44653953              0.0                     # Si
49   49   1    28.72110017              17.44653953              0.0                     # Si
50   50   1    0.92645949               17.44653953              0.0                     # Si
51   51   1    2.77948546               17.44653953              0.0                     # Si
52   52   1    4.63240445               17.44653953              0.0                     # Si
53   53   1    6.48543042               17.44653953              0.0                     # Si
54   54   1    8.33834941               17.44653953              0.0                     # Si
55   55   1    10.19137538              17.44653953              0.0                     # Si
56   56   1    12.04429437              17.44653953              0.0                     # Si
57   57   1    14.82377983              17.98335613              0.0                     # Si
58   58   1    16.6768058               17.98335613              0.0                     # Si
59   59   1    18.52972479              17.98335613              0.0                     # Si
60   60   1    20.38275076              17.98335613              0.0                     # Si
61   61   1    22.23566975              17.98335613              0.0                     # Si
62   62   1    24.08869572              17.98335613              0.0                     # Si
63   63   1    25.9416147               17.98335613              0.0                     # Si
64   64   1    27.79464067              17.98335613              0.0                     # Si
65   65   1    29.64755966              17.98335613              0.0                     # Si
66   66   1    1.85302597               17.98335613              0.0                     # Si
67   67   1    3.70594496               17.98335613              0.0                     # Si
68   68   1    5.55897093               17.98335613              0.0                     # Si
69   69   1    7.41188992               17.98335613              0.0                     # Si
70   70   1    9.26491589               17.98335613              0.0                     # Si
71   71   1    11.11783487              17.98335613              0.0                     # Si
72   72   1    12.97086084              17.98335613              0.0                     # Si
73   73   1    16.6768058               19.05698934              0.0                     # Si
74   74   1    18.52972479              19.05698934              0.0                     # Si
75   75   1    20.38275076              19.05698934              0.0                     # Si
76   76   1    22.23566975              19.05698934              0.0                     # Si
77   77   1    24.08869572              19.05698934              0.0                     # Si
78   78   1    25.9416147               19.05698934              0.0                     # Si
79   79   1    27.79464067              19.05698934              0.0                     # Si
80   80   1    29.64755966              19.05698934              0.0                     # Si
81   81   1    1.85302597               19.05698934              0.0                     # Si
82   82   1    3.70594496               19.05698934              0.0                     # Si
83   83   1    5.55897093               19.05698934              0.0                     # Si
84   84   1    7.41188992               19.05698934              0.0                     # Si
85   85   1    9.26491589               19.05698934              0.0                     # Si
86   86   1    11.11783487              19.05698934              0.0                     # Si
87   87   1    12.97086084              19.05698934              0.0                     # Si
88   88   1    14.82377983              19.05698934              0.0                     # Si
89   89   1    15.75023933              19.59380594              0.0                     # Si
90   90   1    17.60326529              19.59380594              0.0                     # Si
91   91   1    19.45618428              19.59380594              0.0                     # Si
92   92   1    21.30921025              19.59380594              0.0                     # Si
93   93   1    23.16212924              19.59380594              0.0                     # Si
94   94   1    25.01515521              19.59380594              0.0                     # Si
95   95   1    26.8680742               19.59380594              0.0                     # Si
96   96   1    28.72110017              19.59380594              0.0                     # Si
97   97   1    0.92645949               19.59380594              0.0                     # Si
98   98   1    2.77948546               19.59380594              0.0                     # Si
99   99   1    4.63240445               19.59380594              0.0                     # Si
100  100  1    6.48543042               19.59380594              0.0                     # Si
101  101  1    8.33834941               19.59380594              0.0                     # Si
102  102  1    10.19137538              19.59380594              0.0                     # Si
103  103  1    12.04429437              19.59380594              0.0                     # Si
104  104  1    13.89732034              19.59380594              0.0                     # Si
105  105  1    15.75023933              20.66743914              0.0                     # Si
106  106  1    17.60326529              20.66743914              0.0                     # Si
107  107  1    19.45618428              20.66743914              0.0                     # Si
108  108  1    21.30921025              20.66743914              0.0                     # Si
109  109  1    23.16212924              20.66743914              0.0                     # Si
110  110  1    25.01515521              20.66743914              0.0                     # Si
111  111  1    26.8680742               20.66743914              0.0                     # Si
112  112  1    28.72110017              20.66743914              0.0                     # Si
113  113  1    0.92645949               20.66743914              0.0                     # Si
114  114  1    2.77948546               20.66743914              0.0                     # Si
115  115  1    4.63240445               20.66743914              0.0                     # Si
116  116  1    6.48543042               20.66743914              0.0                     # Si
117  117  1    8.33834941               20.66743914              0.0                     # Si
118  118  1    10.19137538              20.66743914              0.0                     # Si
119  119  1    12.04429437              20.66743914              0.0                     # Si
120  120  1    13.89732034              20.66743914              0.0                     # Si
121  121  1    14.82377983              21.20425574              0.0                     # Si
122  122  1    16.6768058               21.20425574              0.0                     # Si
123  123  1    18.52972479              21.20425574              0.0                     # Si
124  124  1    20.38275076              21.20425574              0.0                     # Si
125  125  1    22.23566975              21.20425574              0.0                     # Si
126  126  1    24.08869572              21.20425574              0.0                     # Si
127  127  1    25.9416147               21.20425574              0.0                     # Si
128  128  1    27.79464067              21.20425574              0.0                     # Si
129  129  1    29.64755966              21.20425574              0.0                     # Si
130  130  1    1.85302597               21.20425574              0.0                     # Si
131  131  1    3.70594496               21.20425574              0.0                     # Si
132  132  1    5.55897093               21.20425574              0.0                     # Si
133  133  1    7.41188992               21.20425574              0.0                     # Si
134  134  1    9.26491589               21.20425574              0.0                     # Si
135  135  1    11.11783487              21.20425574              0.0                     # Si
136  136  1    12.97086084              21.20425574              0.0                     # Si
137  137  1    16.6768058               22.27788894              0.0                     # Si
138  138  1    18.52972479              22.27788894              0.0                     # Si
139  139  1    20.38275076              22.27788894              0.0                     # Si
140  140  1    22.23566975              22.27788894              0.0                     # Si
141  141  1    24.08869572              22.27788894              0.0                     # Si
142  142  1    25.9416147               22.27788894              0.0                     # Si
143  143  1    27.79464067              22.27788894              0.0                     # Si
144  144  1    29.64755966              22.27788894              0.0                     # Si
145  145  1    1.85302597               22.27788894              0.0                     # Si
146  146  1    3.70594496               22.27788894              0.0                     # Si
147  147  1    5.55897093               22.27788894              0.0                     # Si
148  148  1    7.41188992               22.27788894              0.0                     # Si
149  149  1    9.26491589               22.27788894              0.0                     # Si
150  150  1    11.11783487              22.27788894              0.0                     # Si
151  151  1    12.97086084              22.27788894              0.0                     # Si
152  152  1    14.82377983              22.27788894              0.0                     # Si
153  153  1    15.75023933              22.81470554              0.0                     # Si
154  154  1    17.60326529              22.81470554              0.0                     # Si
155  155  1    19.45618428              22.81470554              0.0                     # Si
156  156  1    21.30921025              22.81470554              0.0                     # Si
157  157  1    23.16212924              22.81470554              0.0                     # Si
158  158  1    25.01515521              22.81470554              0.0                     # Si
159  159  1    26.8680742               22.81470554              0.0                     # Si
160  160  1    28.72110017              22.81470554              0.0                     # Si
161  161  1    0.92645949               22.81470554              0.0                     # Si
162  162  1    2.77948546               22.81470554              0.0                     # Si
163  163  1    4.63240445               22.81470554              0.0                     # Si
164  164  1    6.48543042               22.81470554              0.0                     # Si
165  165  1    8.33834941               22.81470554              0.0                     # Si
166  166  1    10.19137538              22.81470554              0.0                     # Si
167  167  1    12.04429437              22.81470554              0.0                     # Si
168  168  1    13.89732034              22.81470554              0.0                     # Si
169  169  1    15.75023933              23.88833874              0.0                     # Si
170  170  1    17.60326529              23.88833874              0.0                     # Si
171  171  1    19.45618428              23.88833874              0.0                     # Si
172  172  1    21.30921025              23.88833874              0.0                     # Si
173  173  1    23.16212924              23.88833874              0.0                     # Si
174  174  1    25.01515521              23.88833874              0.0                     # Si
175  175  1    26.8680742               23.88833874              0.0                     # Si
176  176  1    28.72110017              23.88833874              0.0                     # Si
177  177  1    0.92645949               23.88833874              0.0                     # Si
178  178  1    2.77948546               23.88833874              0.0                     # Si
179  179  1    4.63240445               23.88833874              0.0                     # Si
180  180  1    6.48543042               23.88833874              0.0                     # Si
181  181  1    8.33834941               23.88833874              0.0                     # Si
182  182  1    10.19137538              23.88833874              0.0                     # Si
183  183  1    12.04429437              23.88833874              0.0                     # Si
184  184  1    13.89732034              23.88833874              0.0                     # Si
185  185  1    14.82377983              24.42515535              0.0                     # Si
186  186  1    16.6768058               24.42515535              0.0                     # Si
187  187  1    18.52972479              24.42515535              0.0                     # Si
188  188  1    20.38275076              24.42515535              0.0                     # Si
189  189  1    22.23566975              24.42515535              0.0                     # Si
190  190  1    24.08869572              24.42515535              0.0                     # Si
191  191  1    25.9416147               24.42515535              0.0                     # Si
192  192  1    27.79464067              24.42515535              0.0                     # Si
193  193  1    29.64755966              24.42515535              0.0                     # Si
194  194  1    1.85302597               24.42515535              0.0                     # Si
195  195  1    3.70594496               24.42515535              0.0                     # Si
196  196  1    5.55897093               24.42515535              0.0                     # Si
197  197  1    7.41188992               24.42515535              0.0                     # Si
198  198  1    9.26491589               24.42515535              0.0                     # Si
199  199  1    11.11783487              24.42515535              0.0                     # Si
200  200  1    12.97086084              24.42515535              0.0                     # Si
201  201  1    16.6768058               25.49878855              0.0                     # Si
202  202  1    18.52972479              25.49878855              0.0                     # Si
203  203  1    20.38275076              25.49878855              0.0                     # Si
204  204  1    22.23566975              25.49878855              0.0                     # Si
205  205  1    24.08869572              25.49878855              0.0                     # Si
206  206  1    25.9416147               25.49878855              0.0                     # Si
207  207  1    27.79464067              25.49878855              0.0                     # Si
208  208  1    29.64755966              25.49878855              0.0                     # Si
209  209  1    1.85302597               25.49878855              0.0                     # Si
210  210  1    3.70594496               25.49878855              0.0                     # Si
211  211  1    5.55897093               25.49878855              0.0                     # Si
212  212  1    7.41188992               25.49878855              0.0                     # Si
213  213  1    9.26491589               25.49878855              0.0                     # Si
214  214  1    11.11783487              25.49878855              0.0                     # Si
215  215  1    12.97086084              25.49878855              0.0                     # Si
216  216  1    14.82377983              25.49878855              0.0                     # Si
217  217  1    15.75023933              0.2684083                0.0                     # Si
218  218  1    17.60326529              0.2684083                0.0                     # Si
219  219  1    19.45618428              0.2684083                0.0                     # Si
220  220  1    21.30921025              0.2684083                0.0                     # Si
221  221  1    23.16212924              0.2684083                0.0                     # Si
222  222  1    25.01515521              0.2684083                0.0                     # Si
223  223  1    26.8680742               0.2684083                0.0                     # Si
224  224  1    28.72110017              0.2684083                0.0                     # Si
225  225  1    0.92645949               0.2684083                0.0                     # Si
226  226  1    2.77948546               0.2684083                0.0                     # Si
227  227  1    4.63240445               0.2684083                0.0                     # Si
228  228  1    6.48543042               0.2684083                0.0                     # Si
229  229  1    8.33834941               0.2684083                0.0                     # Si
230  230  1    10.19137538              0.2684083                0.0                     # Si
231  231  1    12.04429437              0.2684083                0.0                     # Si
232  232  1    13.89732034              0.2684083                0.0                     # Si
233  233  1    15.75023933              1.3420415                0.0                     # Si
234  234  1    17.60326529              1.3420415                0.0                     # Si
235  235  1    19.45618428              1.3420415                0.0                     # Si
236  236  1    21.30921025              1.3420415                0.0                     # Si
237  237  1    23.16212924              1.3420415                0.0                     # Si
238  238  1    25.01515521              1.3420415                0.0                     # Si
239  239  1    26.8680742               1.3420415                0.0                     # Si
240  240  1    28.72110017              1.3420415                0.0                     # Si
241  241  1    0.92645949               1.3420415                0.0                     # Si
242  242  1    2.77948546               1.3420415                0.0                     # Si
243  243  1    4.63240445               1.3420415                0.0                     # Si
244  244  1    6.48543042               1.3420415                0.0                     # Si
245  245  1    8.33834941               1.3420415                0.0                     # Si
246  246  1    10.19137538              1.3420415                0.0                     # Si
247  247  1    12.04429437              1.3420415                0.0                     # Si
248  248  1    13.89732034              1.3420415                0.0                     # Si
249  249  1    14.82377983              1.8788581                0.0                     # Si
250  250  1    16.6768058               1.8788581                0.0                     # Si
251  251  1    18.52972479              1.8788581                0.0                     # Si
252  252  1    20.38275076              1.8788581                0.0                     # Si
253  253  1    22.23566975              1.8788581                0.0                     # Si
254  254  1    24.08869572              1.8788581                0.0                     # Si
255  255  1    25.9416147               1.8788581                0.0                     # Si
256  256  1    27.79464067              1.8788581                0.0                     # Si
257  257  1    29.64755966              1.8788581                0.0                     # Si
258  258  1    1.85302597               1.8788581                0.0                     # Si
259  259  1    3.70594496               1.8788581                0.0                     # Si
260  260  1    5.55897093               1.8788581                0.0                     # Si
261  261  1    7.41188992               1.8788581                0.0                     # Si
262  262  1    9.26491589               1.8788581                0.0                     # Si
263  263  1    11.11783487              1.8788581                0.0                     # Si
264  264  1    12.97086084              1.8788581                0.0                     # Si
265  265  1    16.6768058               2.95249131               0.0                     # Si
266  266  1    18.52972479              2.95249131               0.0                     # Si
267  267  1    20.38275076              2.95249131               0.0                     # Si
268  268  1    22.23566975              2.95249131               0.0                     # Si
269  269  1    24.08869572              2.95249131               0.0                     # Si
270  270  1    25.9416147               2.95249131               0.0                     # Si
271  271  1    27.79464067              2.95249131               0.0                     # Si
272  272  1    29.64755966              2.95249131               0.0                     # Si
273  273  1    1.85302597               2.95249131               0.0                     # Si
274  274  1    3.70594496               2.95249131               0.0                     # Si
275  275  1    5.55897093               2.95249131               0.0                     # Si
276  276  1    7.41188992               2.95249131               0.0                     # Si
277  277  1    9.26491589               2.95249131               0.0                     # Si
278  278  1    11.11783487              2.95249131               0.0                     # Si
279  279  1    12.97086084              2.95249131               0.0                     # Si
280  280  1    14.82377983              2.95249131               0.0                     # Si
281  281  1    17.60326529              3.48930791               0.0                     # Si
282  282  1    19.45618428              3.48930791               0.0                     # Si
283  283  1    21.30921025              3.48930791               0.0                     # Si
284  284  1    23.16212924              3.48930791               0.0                     # Si
285  285  1    25.01515521              3.48930791               0.0                     # Si
286  286  1    26.8680742               3.48930791               0.0                     # Si
287  287  1    28.72110017              3.48930791               0.0                     # Si
288  288  1    0.92645949               3.48930791               0.0                     # Si
289  289  1    2.77948546               3.48930791               0.0                     # Si
290  290  1    4.63240445               3.48930791               0.0                     # Si
291  291  1    6.48543042               3.48930791               0.0                     # Si
292  292  1    8.33834941               3.48930791               0.0                     # Si
293  293  1    10.19137538              3.48930791               0.0                     # Si
294  294  1    12.04429437              3.48930791               0.0                     # Si
295  295  1    19.45618428              4.56294111               0.0                     # Si
296  296  1    21.30921025              4.56294111               0.0                     # Si
297  297  1    23.16212924              4.56294111               0.0                     # Si
298  298  1    25.01515521              4.56294111               0.0                     # Si
299  299  1    26.8680742               4.56294111               0.0                     # Si
300  300  1    28.72110017              4.56294111               0.0                     # Si
301  301  1    0.92645949               4.56294111               0.0                     # Si
302  302  1    2.77948546               4.56294111               0.0                     # Si
303  303  1    4.63240445               4.56294111               0.0                     # Si
304  304  1    6.48543042               4.56294111               0.0                     # Si
305  305  1    8.33834941               4.56294111               0.0                     # Si
306  306  1    10.19137538              4.56294111               0.0                     # Si
307  307  1    20.38275076              5.09975771               0.0                     # Si
308  308  1    22.23566975              5.09975771               0.0                     # Si
309  309  1    24.08869572              5.09975771               0.0                     # Si
310  310  1    25.9416147               5.09975771               0.0                     # Si
311  311  1    27.79464067              5.09975771               0.0                     # Si
312  312  1    29.64755966              5.09975771               0.0                     # Si
313  313  1    1.85302597               5.09975771               0.0                     # Si
314  314  1    3.70594496               5.09975771               0.0                     # Si
315  315  1    5.55897093               5.09975771               0.0                     # Si