DATA FILE Produced from netmc results (cf David Morley)
2424 atoms
8080 bonds
0 angles
0 dihedrals
0 impropers
2 atom types
0 bond types
2 bond types
0 angle types
0 dihedral types
0 improper types
0.00000 169.9799906478043 xlo xhi
0.00000 147.7324230005489 ylo yhi
0.0000 200.0000 zlo zhi

# Pair Coeffs
#
# 1  O
# 2  Si

# Bond Coeffs
# 
# 1  O-O
# 2  Si-O
# 3  O-O rep
# 4  Si-Si rep

 Masses

1 28.10000 # O 
2 32.01000 # Si

 Atoms # molecular

1    1    1    122.17321429205566       81.56060854528918        8.040569334518267        # O
2    2    1    132.79665205325045       81.56060854528918        8.040569334518267        # O
3    3    1    143.42070316849788       81.56060854528918        8.040569334518267        # O
4    4    1    154.0441409296927        81.56060854528918        8.040569334518267        # O
5    5    1    164.66819204494013       81.56060854528918        8.040569334518267        # O
6    6    1    5.31171885193064         81.56060854528918        8.040569334518267        # O
7    7    1    15.935769967178063       81.56060854528918        8.040569334518267        # O
8    8    1    26.559207728372865       81.56060854528918        8.040569334518267        # O
9    9    1    37.18325884362029        81.56060854528918        8.040569334518267        # O
10   10   1    47.80669660481509        81.56060854528918        8.040569334518267        # O
11   11   1    127.48493320131983       84.63836735182838        8.040569334518267        # O
12   12   1    138.10898431656727       84.63836735182838        8.040569334518267        # O
13   13   1    148.73242202042852       84.63836735182838        8.040569334518267        # O
14   14   1    159.35647313567597       84.63836735182838        8.040569334518267        # O
15   15   1    169.97991089687076       84.63836735182838        8.040569334518267        # O
16   16   1    10.624051115247424       84.63836735182838        8.040569334518267        # O
17   17   1    21.247488876442226       84.63836735182838        8.040569334518267        # O
18   18   1    31.87153999168965        84.63836735182838        8.040569334518267        # O
19   19   1    42.49497775288445        84.63836735182838        8.040569334518267        # O
20   20   1    116.86149544012503       90.79388496490675        8.040569334518267        # O
21   21   1    127.48493320131983       90.79388496490675        8.040569334518267        # O
22   22   1    138.10898431656727       90.79388496490675        8.040569334518267        # O
23   23   1    148.73242202042852       90.79388496490675        8.040569334518267        # O
24   24   1    159.35647313567597       90.79388496490675        8.040569334518267        # O
25   25   1    169.97991089687076       90.79388496490675        8.040569334518267        # O
26   26   1    10.624051115247424       90.79388496490675        8.040569334518267        # O
27   27   1    21.247488876442226       90.79388496490675        8.040569334518267        # O
28   28   1    31.87153999168965        90.79388496490675        8.040569334518267        # O
29   29   1    42.49497775288445        90.79388496490675        8.040569334518267        # O
30   30   1    53.11902886813187        90.79388496490675        8.040569334518267        # O
31   31   1    111.54916317680824       93.87164377144595        8.040569334518267        # O
32   32   1    122.17321429205566       93.87164377144595        8.040569334518267        # O
33   33   1    132.79665205325045       93.87164377144595        8.040569334518267        # O
34   34   1    143.42070316849788       93.87164377144595        8.040569334518267        # O
35   35   1    154.0441409296927        93.87164377144595        8.040569334518267        # O
36   36   1    164.66819204494013       93.87164377144595        8.040569334518267        # O
37   37   1    5.31171885193064         93.87164377144595        8.040569334518267        # O
38   38   1    15.935769967178063       93.87164377144595        8.040569334518267        # O
39   39   1    26.559207728372865       93.87164377144595        8.040569334518267        # O
40   40   1    37.18325884362029        93.87164377144595        8.040569334518267        # O
41   41   1    47.80669660481509        93.87164377144595        8.040569334518267        # O
42   42   1    58.43074772006251        93.87164377144595        8.040569334518267        # O
43   43   1    100.92572541561344       100.02716138452433       8.040569334518267        # O
44   44   1    111.54916317680824       100.02716138452433       8.040569334518267        # O
45   45   1    122.17321429205566       100.02716138452433       8.040569334518267        # O
46   46   1    132.79665205325045       100.02716138452433       8.040569334518267        # O
47   47   1    143.42070316849788       100.02716138452433       8.040569334518267        # O
48   48   1    154.0441409296927        100.02716138452433       8.040569334518267        # O
49   49   1    164.66819204494013       100.02716138452433       8.040569334518267        # O
50   50   1    5.31171885193064         100.02716138452433       8.040569334518267        # O
51   51   1    15.935769967178063       100.02716138452433       8.040569334518267        # O
52   52   1    26.559207728372865       100.02716138452433       8.040569334518267        # O
53   53   1    37.18325884362029        100.02716138452433       8.040569334518267        # O
54   54   1    47.80669660481509        100.02716138452433       8.040569334518267        # O
55   55   1    58.43074772006251        100.02716138452433       8.040569334518267        # O
56   56   1    69.05418548125732        100.02716138452433       8.040569334518267        # O
57   57   1    84.98995544843538        103.10492019106353       8.040569334518267        # O
58   58   1    95.6140065636828         103.10492019106353       8.040569334518267        # O
59   59   1    106.2374443248776        103.10492019106353       8.040569334518267        # O
60   60   1    116.86149544012503       103.10492019106353       8.040569334518267        # O
61   61   1    127.48493320131983       103.10492019106353       8.040569334518267        # O
62   62   1    138.10898431656727       103.10492019106353       8.040569334518267        # O
63   63   1    148.73242202042852       103.10492019106353       8.040569334518267        # O
64   64   1    159.35647313567597       103.10492019106353       8.040569334518267        # O
65   65   1    169.97991089687076       103.10492019106353       8.040569334518267        # O
66   66   1    10.624051115247424       103.10492019106353       8.040569334518267        # O
67   67   1    21.247488876442226       103.10492019106353       8.040569334518267        # O
68   68   1    31.87153999168965        103.10492019106353       8.040569334518267        # O
69   69   1    42.49497775288445        103.10492019106353       8.040569334518267        # O
70   70   1    53.11902886813187        103.10492019106353       8.040569334518267        # O
71   71   1    63.74246657199315        103.10492019106353       8.040569334518267        # O
72   72   1    74.36651768724057        103.10492019106353       8.040569334518267        # O
73   73   1    95.6140065636828         109.26043786147545       8.040569334518267        # O
74   74   1    106.2374443248776        109.26043786147545       8.040569334518267        # O
75   75   1    116.86149544012503       109.26043786147545       8.040569334518267        # O
76   76   1    127.48493320131983       109.26043786147545       8.040569334518267        # O
77   77   1    138.10898431656727       109.26043786147545       8.040569334518267        # O
78   78   1    148.73242202042852       109.26043786147545       8.040569334518267        # O
79   79   1    159.35647313567597       109.26043786147545       8.040569334518267        # O
80   80   1    169.97991089687076       109.26043786147545       8.040569334518267        # O
81   81   1    10.624051115247424       109.26043786147545       8.040569334518267        # O
82   82   1    21.247488876442226       109.26043786147545       8.040569334518267        # O
83   83   1    31.87153999168965        109.26043786147545       8.040569334518267        # O
84   84   1    42.49497775288445        109.26043786147545       8.040569334518267        # O
85   85   1    53.11902886813187        109.26043786147545       8.040569334518267        # O
86   86   1    63.74246657199315        109.26043786147545       8.040569334518267        # O
87   87   1    74.36651768724057        109.26043786147545       8.040569334518267        # O
88   88   1    84.98995544843538        109.26043786147545       8.040569334518267        # O
89   89   1    90.30167435769954        112.33819666801463       8.040569334518267        # O
90   90   1    100.92572541561344       112.33819666801463       8.040569334518267        # O
91   91   1    111.54916317680824       112.33819666801463       8.040569334518267        # O
92   92   1    122.17321429205566       112.33819666801463       8.040569334518267        # O
93   93   1    132.79665205325045       112.33819666801463       8.040569334518267        # O
94   94   1    143.42070316849788       112.33819666801463       8.040569334518267        # O
95   95   1    154.0441409296927        112.33819666801463       8.040569334518267        # O
96   96   1    164.66819204494013       112.33819666801463       8.040569334518267        # O
97   97   1    5.31171885193064         112.33819666801463       8.040569334518267        # O
98   98   1    15.935769967178063       112.33819666801463       8.040569334518267        # O
99   99   1    26.559207728372865       112.33819666801463       8.040569334518267        # O
100  100  1    37.18325884362029        112.33819666801463       8.040569334518267        # O
101  101  1    47.80669660481509        112.33819666801463       8.040569334518267        # O
102  102  1    58.43074772006251        112.33819666801463       8.040569334518267        # O
103  103  1    69.05418548125732        112.33819666801463       8.040569334518267        # O
104  104  1    79.67823659650475        112.33819666801463       8.040569334518267        # O
105  105  1    90.30167435769954        118.49371428109302       8.040569334518267        # O
106  106  1    100.92572541561344       118.49371428109302       8.040569334518267        # O
107  107  1    111.54916317680824       118.49371428109302       8.040569334518267        # O
108  108  1    122.17321429205566       118.49371428109302       8.040569334518267        # O
109  109  1    132.79665205325045       118.49371428109302       8.040569334518267        # O
110  110  1    143.42070316849788       118.49371428109302       8.040569334518267        # O
111  111  1    154.0441409296927        118.49371428109302       8.040569334518267        # O
112  112  1    164.66819204494013       118.49371428109302       8.040569334518267        # O
113  113  1    5.31171885193064         118.49371428109302       8.040569334518267        # O
114  114  1    15.935769967178063       118.49371428109302       8.040569334518267        # O
115  115  1    26.559207728372865       118.49371428109302       8.040569334518267        # O
116  116  1    37.18325884362029        118.49371428109302       8.040569334518267        # O
117  117  1    47.80669660481509        118.49371428109302       8.040569334518267        # O
118  118  1    58.43074772006251        118.49371428109302       8.040569334518267        # O
119  119  1    69.05418548125732        118.49371428109302       8.040569334518267        # O
120  120  1    79.67823659650475        118.49371428109302       8.040569334518267        # O
121  121  1    84.98995544843538        121.57147308763221       8.040569334518267        # O
122  122  1    95.6140065636828         121.57147308763221       8.040569334518267        # O
123  123  1    106.2374443248776        121.57147308763221       8.040569334518267        # O
124  124  1    116.86149544012503       121.57147308763221       8.040569334518267        # O
125  125  1    127.48493320131983       121.57147308763221       8.040569334518267        # O
126  126  1    138.10898431656727       121.57147308763221       8.040569334518267        # O
127  127  1    148.73242202042852       121.57147308763221       8.040569334518267        # O
128  128  1    159.35647313567597       121.57147308763221       8.040569334518267        # O
129  129  1    169.97991089687076       121.57147308763221       8.040569334518267        # O
130  130  1    10.624051115247424       121.57147308763221       8.040569334518267        # O
131  131  1    21.247488876442226       121.57147308763221       8.040569334518267        # O
132  132  1    31.87153999168965        121.57147308763221       8.040569334518267        # O
133  133  1    42.49497775288445        121.57147308763221       8.040569334518267        # O
134  134  1    53.11902886813187        121.57147308763221       8.040569334518267        # O
135  135  1    63.74246657199315        121.57147308763221       8.040569334518267        # O
136  136  1    74.36651768724057        121.57147308763221       8.040569334518267        # O
137  137  1    95.6140065636828         127.7269907007106        8.040569334518267        # O
138  138  1    106.2374443248776        127.7269907007106        8.040569334518267        # O
139  139  1    116.86149544012503       127.7269907007106        8.040569334518267        # O
140  140  1    127.48493320131983       127.7269907007106        8.040569334518267        # O
141  141  1    138.10898431656727       127.7269907007106        8.040569334518267        # O
142  142  1    148.73242202042852       127.7269907007106        8.040569334518267        # O
143  143  1    159.35647313567597       127.7269907007106        8.040569334518267        # O
144  144  1    169.97991089687076       127.7269907007106        8.040569334518267        # O
145  145  1    10.624051115247424       127.7269907007106        8.040569334518267        # O
146  146  1    21.247488876442226       127.7269907007106        8.040569334518267        # O
147  147  1    31.87153999168965        127.7269907007106        8.040569334518267        # O
148  148  1    42.49497775288445        127.7269907007106        8.040569334518267        # O
149  149  1    53.11902886813187        127.7269907007106        8.040569334518267        # O
150  150  1    63.74246657199315        127.7269907007106        8.040569334518267        # O
151  151  1    74.36651768724057        127.7269907007106        8.040569334518267        # O
152  152  1    84.98995544843538        127.7269907007106        8.040569334518267        # O
153  153  1    90.30167435769954        130.80474950724977       8.040569334518267        # O
154  154  1    100.92572541561344       130.80474950724977       8.040569334518267        # O
155  155  1    111.54916317680824       130.80474950724977       8.040569334518267        # O
156  156  1    122.17321429205566       130.80474950724977       8.040569334518267        # O
157  157  1    132.79665205325045       130.80474950724977       8.040569334518267        # O
158  158  1    143.42070316849788       130.80474950724977       8.040569334518267        # O
159  159  1    154.0441409296927        130.80474950724977       8.040569334518267        # O
160  160  1    164.66819204494013       130.80474950724977       8.040569334518267        # O
161  161  1    5.31171885193064         130.80474950724977       8.040569334518267        # O
162  162  1    15.935769967178063       130.80474950724977       8.040569334518267        # O
163  163  1    26.559207728372865       130.80474950724977       8.040569334518267        # O
164  164  1    37.18325884362029        130.80474950724977       8.040569334518267        # O
165  165  1    47.80669660481509        130.80474950724977       8.040569334518267        # O
166  166  1    58.43074772006251        130.80474950724977       8.040569334518267        # O
167  167  1    69.05418548125732        130.80474950724977       8.040569334518267        # O
168  168  1    79.67823659650475        130.80474950724977       8.040569334518267        # O
169  169  1    90.30167435769954        136.96026712032815       8.040569334518267        # O
170  170  1    100.92572541561344       136.96026712032815       8.040569334518267        # O
171  171  1    111.54916317680824       136.96026712032815       8.040569334518267        # O
172  172  1    122.17321429205566       136.96026712032815       8.040569334518267        # O
173  173  1    132.79665205325045       136.96026712032815       8.040569334518267        # O
174  174  1    143.42070316849788       136.96026712032815       8.040569334518267        # O
175  175  1    154.0441409296927        136.96026712032815       8.040569334518267        # O
176  176  1    164.66819204494013       136.96026712032815       8.040569334518267        # O
177  177  1    5.31171885193064         136.96026712032815       8.040569334518267        # O
178  178  1    15.935769967178063       136.96026712032815       8.040569334518267        # O
179  179  1    26.559207728372865       136.96026712032815       8.040569334518267        # O
180  180  1    37.18325884362029        136.96026712032815       8.040569334518267        # O
181  181  1    47.80669660481509        136.96026712032815       8.040569334518267        # O
182  182  1    58.43074772006251        136.96026712032815       8.040569334518267        # O
183  183  1    69.05418548125732        136.96026712032815       8.040569334518267        # O
184  184  1    79.67823659650475        136.96026712032815       8.040569334518267        # O
185  185  1    84.98995544843538        140.03802598420089       8.040569334518267        # O
186  186  1    95.6140065636828         140.03802598420089       8.040569334518267        # O
187  187  1    106.2374443248776        140.03802598420089       8.040569334518267        # O
188  188  1    116.86149544012503       140.03802598420089       8.040569334518267        # O
189  189  1    127.48493320131983       140.03802598420089       8.040569334518267        # O
190  190  1    138.10898431656727       140.03802598420089       8.040569334518267        # O
191  191  1    148.73242202042852       140.03802598420089       8.040569334518267        # O
192  192  1    159.35647313567597       140.03802598420089       8.040569334518267        # O
193  193  1    169.97991089687076       140.03802598420089       8.040569334518267        # O
194  194  1    10.624051115247424       140.03802598420089       8.040569334518267        # O
195  195  1    21.247488876442226       140.03802598420089       8.040569334518267        # O
196  196  1    31.87153999168965        140.03802598420089       8.040569334518267        # O
197  197  1    42.49497775288445        140.03802598420089       8.040569334518267        # O
198  198  1    53.11902886813187        140.03802598420089       8.040569334518267        # O
199  199  1    63.74246657199315        140.03802598420089       8.040569334518267        # O
200  200  1    74.36651768724057        140.03802598420089       8.040569334518267        # O
201  201  1    95.6140065636828         146.19354359727927       8.040569334518267        # O
202  202  1    106.2374443248776        146.19354359727927       8.040569334518267        # O
203  203  1    116.86149544012503       146.19354359727927       8.040569334518267        # O
204  204  1    127.48493320131983       146.19354359727927       8.040569334518267        # O
205  205  1    138.10898431656727       146.19354359727927       8.040569334518267        # O
206  206  1    148.73242202042852       146.19354359727927       8.040569334518267        # O
207  207  1    159.35647313567597       146.19354359727927       8.040569334518267        # O
208  208  1    169.97991089687076       146.19354359727927       8.040569334518267        # O
209  209  1    10.624051115247424       146.19354359727927       8.040569334518267        # O
210  210  1    21.247488876442226       146.19354359727927       8.040569334518267        # O
211  211  1    31.87153999168965        146.19354359727927       8.040569334518267        # O
212  212  1    42.49497775288445        146.19354359727927       8.040569334518267        # O
213  213  1    53.11902886813187        146.19354359727927       8.040569334518267        # O
214  214  1    63.74246657199315        146.19354359727927       8.040569334518267        # O
215  215  1    74.36651768724057        146.19354359727927       8.040569334518267        # O
216  216  1    84.98995544843538        146.19354359727927       8.040569334518267        # O
217  217  1    90.30167435769954        1.5388794032695963       8.040569334518267        # O
218  218  1    100.92572541561344       1.5388794032695963       8.040569334518267        # O
219  219  1    111.54916317680824       1.5388794032695963       8.040569334518267        # O
220  220  1    122.17321429205566       1.5388794032695963       8.040569334518267        # O
221  221  1    132.79665205325045       1.5388794032695963       8.040569334518267        # O
222  222  1    143.42070316849788       1.5388794032695963       8.040569334518267        # O
223  223  1    154.0441409296927        1.5388794032695963       8.040569334518267        # O
224  224  1    164.66819204494013       1.5388794032695963       8.040569334518267        # O
225  225  1    5.31171885193064         1.5388794032695963       8.040569334518267        # O
226  226  1    15.935769967178063       1.5388794032695963       8.040569334518267        # O
227  227  1    26.559207728372865       1.5388794032695963       8.040569334518267        # O
228  228  1    37.18325884362029        1.5388794032695963       8.040569334518267        # O
229  229  1    47.80669660481509        1.5388794032695963       8.040569334518267        # O
230  230  1    58.43074772006251        1.5388794032695963       8.040569334518267        # O
231  231  1    69.05418548125732        1.5388794032695963       8.040569334518267        # O
232  232  1    79.67823659650475        1.5388794032695963       8.040569334518267        # O
233  233  1    90.30167435769954        7.694397016347982        8.040569334518267        # O
234  234  1    100.92572541561344       7.694397016347982        8.040569334518267        # O
235  235  1    111.54916317680824       7.694397016347982        8.040569334518267        # O
236  236  1    122.17321429205566       7.694397016347982        8.040569334518267        # O
237  237  1    132.79665205325045       7.694397016347982        8.040569334518267        # O
238  238  1    143.42070316849788       7.694397016347982        8.040569334518267        # O
239  239  1    154.0441409296927        7.694397016347982        8.040569334518267        # O
240  240  1    164.66819204494013       7.694397016347982        8.040569334518267        # O
241  241  1    5.31171885193064         7.694397016347982        8.040569334518267        # O
242  242  1    15.935769967178063       7.694397016347982        8.040569334518267        # O
243  243  1    26.559207728372865       7.694397016347982        8.040569334518267        # O
244  244  1    37.18325884362029        7.694397016347982        8.040569334518267        # O
245  245  1    47.80669660481509        7.694397016347982        8.040569334518267        # O
246  246  1    58.43074772006251        7.694397016347982        8.040569334518267        # O
247  247  1    69.05418548125732        7.694397016347982        8.040569334518267        # O
248  248  1    79.67823659650475        7.694397016347982        8.040569334518267        # O
249  249  1    84.98995544843538        10.772155822887175       8.040569334518267        # O
250  250  1    95.6140065636828         10.772155822887175       8.040569334518267        # O
251  251  1    106.2374443248776        10.772155822887175       8.040569334518267        # O
252  252  1    116.86149544012503       10.772155822887175       8.040569334518267        # O
253  253  1    127.48493320131983       10.772155822887175       8.040569334518267        # O
254  254  1    138.10898431656727       10.772155822887175       8.040569334518267        # O
255  255  1    148.73242202042852       10.772155822887175       8.040569334518267        # O
256  256  1    159.35647313567597       10.772155822887175       8.040569334518267        # O
257  257  1    169.97991089687076       10.772155822887175       8.040569334518267        # O
258  258  1    10.624051115247424       10.772155822887175       8.040569334518267        # O
259  259  1    21.247488876442226       10.772155822887175       8.040569334518267        # O
260  260  1    31.87153999168965        10.772155822887175       8.040569334518267        # O
261  261  1    42.49497775288445        10.772155822887175       8.040569334518267        # O
262  262  1    53.11902886813187        10.772155822887175       8.040569334518267        # O
263  263  1    63.74246657199315        10.772155822887175       8.040569334518267        # O
264  264  1    74.36651768724057        10.772155822887175       8.040569334518267        # O
265  265  1    95.6140065636828         16.927673493299086       8.040569334518267        # O
266  266  1    106.2374443248776        16.927673493299086       8.040569334518267        # O
267  267  1    116.86149544012503       16.927673493299086       8.040569334518267        # O
268  268  1    127.48493320131983       16.927673493299086       8.040569334518267        # O
269  269  1    138.10898431656727       16.927673493299086       8.040569334518267        # O
270  270  1    148.73242202042852       16.927673493299086       8.040569334518267        # O
271  271  1    159.35647313567597       16.927673493299086       8.040569334518267        # O
272  272  1    169.97991089687076       16.927673493299086       8.040569334518267        # O
273  273  1    10.624051115247424       16.927673493299086       8.040569334518267        # O
274  274  1    21.247488876442226       16.927673493299086       8.040569334518267        # O
275  275  1    31.87153999168965        16.927673493299086       8.040569334518267        # O
276  276  1    42.49497775288445        16.927673493299086       8.040569334518267        # O
277  277  1    53.11902886813187        16.927673493299086       8.040569334518267        # O
278  278  1    63.74246657199315        16.927673493299086       8.040569334518267        # O
279  279  1    74.36651768724057        16.927673493299086       8.040569334518267        # O
280  280  1    84.98995544843538        16.927673493299086       8.040569334518267        # O
281  281  1    100.92572541561344       20.005432299838276       8.040569334518267        # O
282  282  1    111.54916317680824       20.005432299838276       8.040569334518267        # O
283  283  1    122.17321429205566       20.005432299838276       8.040569334518267        # O
284  284  1    132.79665205325045       20.005432299838276       8.040569334518267        # O
285  285  1    143.42070316849788       20.005432299838276       8.040569334518267        # O
286  286  1    154.0441409296927        20.005432299838276       8.040569334518267        # O
287  287  1    164.66819204494013       20.005432299838276       8.040569334518267        # O
288  288  1    5.31171885193064         20.005432299838276       8.040569334518267        # O
289  289  1    15.935769967178063       20.005432299838276       8.040569334518267        # O
290  290  1    26.559207728372865       20.005432299838276       8.040569334518267        # O
291  291  1    37.18325884362029        20.005432299838276       8.040569334518267        # O
292  292  1    47.80669660481509        20.005432299838276       8.040569334518267        # O
293  293  1    58.43074772006251        20.005432299838276       8.040569334518267        # O
294  294  1    69.05418548125732        20.005432299838276       8.040569334518267        # O
295  295  1    111.54916317680824       26.16094991291666        8.040569334518267        # O
296  296  1    122.17321429205566       26.16094991291666        8.040569334518267        # O
297  297  1    132.79665205325045       26.16094991291666        8.040569334518267        # O
298  298  1    143.42070316849788       26.16094991291666        8.040569334518267        # O
299  299  1    154.0441409296927        26.16094991291666        8.040569334518267        # O
300  300  1    164.66819204494013       26.16094991291666        8.040569334518267        # O
301  301  1    5.31171885193064         26.16094991291666        8.040569334518267        # O
302  302  1    15.935769967178063       26.16094991291666        8.040569334518267        # O
303  303  1    26.559207728372865       26.16094991291666        8.040569334518267        # O
304  304  1    37.18325884362029        26.16094991291666        8.040569334518267        # O
305  305  1    47.80669660481509        26.16094991291666        8.040569334518267        # O
306  306  1    58.43074772006251        26.16094991291666        8.040569334518267        # O
307  307  1    116.86149544012503       29.238708719455857       8.040569334518267        # O
308  308  1    127.48493320131983       29.238708719455857       8.040569334518267        # O
309  309  1    138.10898431656727       29.238708719455857       8.040569334518267        # O
310  310  1    148.73242202042852       29.238708719455857       8.040569334518267        # O
311  311  1    159.35647313567597       29.238708719455857       8.040569334518267        # O
312  312  1    169.97991089687076       29.238708719455857       8.040569334518267        # O
313  313  1    10.624051115247424       29.238708719455857       8.040569334518267        # O
314  314  1    21.247488876442226       29.238708719455857       8.040569334518267        # O