DATA FILE Produced from netmc results (cf David Morley)
404 atoms
1 atom types
0.00000 34.9562355947788 xlo xhi
0.00000 30.272987959565533 ylo yhi

 Masses

1 12.0000 # Si

 Atoms # molecular

1    1    25.124814082141757       16.713212102676806       0.0                     # C
2    1    27.30951471322373        16.713212102676806       0.0                     # C
3    1    29.494341481755544       16.713212102676806       0.0                     # C
4    1    31.679042112837525       16.713212102676806       0.0                     # C
5    1    33.863868881369335       16.713212102676806       0.0                     # C
6    1    1.0923503155409897       16.713212102676806       0.0                     # C
7    1    3.2771770840728007       16.713212102676806       0.0                     # C
8    1    5.461877715154779        16.713212102676806       0.0                     # C
9    1    7.646704483686591        16.713212102676806       0.0                     # C
10   1    9.83140511476857         16.713212102676806       0.0                     # C
11   1    26.217164397682744       17.34389935183442        0.0                     # C
12   1    28.40199116621455        17.34389935183442        0.0                     # C
13   1    30.58669179729653        17.34389935183442        0.0                     # C
14   1    32.771518565828345       17.34389935183442        0.0                     # C
15   1    34.956219196910325       17.34389935183442        0.0                     # C
16   1    2.1848267685318112       17.34389935183442        0.0                     # C
17   1    4.369527399613791        17.34389935183442        0.0                     # C
18   1    6.5543541681456015       17.34389935183442        0.0                     # C
19   1    8.739054799227581        17.34389935183442        0.0                     # C
20   1    24.032463766600763       18.60527385014965        0.0                     # C
21   1    26.217164397682744       18.60527385014965        0.0                     # C
22   1    28.40199116621455        18.60527385014965        0.0                     # C
23   1    30.58669179729653        18.60527385014965        0.0                     # C
24   1    32.771518565828345       18.60527385014965        0.0                     # C
25   1    34.956219196910325       18.60527385014965        0.0                     # C
26   1    2.1848267685318112       18.60527385014965        0.0                     # C
27   1    4.369527399613791        18.60527385014965        0.0                     # C
28   1    6.5543541681456015       18.60527385014965        0.0                     # C
29   1    8.739054799227581        18.60527385014965        0.0                     # C
30   1    10.923881567759391       18.60527385014965        0.0                     # C
31   1    22.93998731360994        19.235961099307268       0.0                     # C
32   1    25.124814082141757       19.235961099307268       0.0                     # C
33   1    27.30951471322373        19.235961099307268       0.0                     # C
34   1    29.494341481755544       19.235961099307268       0.0                     # C
35   1    31.679042112837525       19.235961099307268       0.0                     # C
36   1    33.863868881369335       19.235961099307268       0.0                     # C
37   1    1.0923503155409897       19.235961099307268       0.0                     # C
38   1    3.2771770840728007       19.235961099307268       0.0                     # C
39   1    5.461877715154779        19.235961099307268       0.0                     # C
40   1    7.646704483686591        19.235961099307268       0.0                     # C
41   1    9.83140511476857         19.235961099307268       0.0                     # C
42   1    12.016231883300382       19.235961099307268       0.0                     # C
43   1    20.755286682527963       20.4973355976225         0.0                     # C
44   1    22.93998731360994        20.4973355976225         0.0                     # C
45   1    25.124814082141757       20.4973355976225         0.0                     # C
46   1    27.30951471322373        20.4973355976225         0.0                     # C
47   1    29.494341481755544       20.4973355976225         0.0                     # C
48   1    31.679042112837525       20.4973355976225         0.0                     # C
49   1    33.863868881369335       20.4973355976225         0.0                     # C
50   1    1.0923503155409897       20.4973355976225         0.0                     # C
51   1    3.2771770840728007       20.4973355976225         0.0                     # C
52   1    5.461877715154779        20.4973355976225         0.0                     # C
53   1    7.646704483686591        20.4973355976225         0.0                     # C
54   1    9.83140511476857         20.4973355976225         0.0                     # C
55   1    12.016231883300382       20.4973355976225         0.0                     # C
56   1    14.200932514382362       20.4973355976225         0.0                     # C
57   1    17.478109598455163       21.128022846780112       0.0                     # C
58   1    19.662936366986973       21.128022846780112       0.0                     # C
59   1    21.847636998068953       21.128022846780112       0.0                     # C
60   1    24.032463766600763       21.128022846780112       0.0                     # C
61   1    26.217164397682744       21.128022846780112       0.0                     # C
62   1    28.40199116621455        21.128022846780112       0.0                     # C
63   1    30.58669179729653        21.128022846780112       0.0                     # C
64   1    32.771518565828345       21.128022846780112       0.0                     # C
65   1    34.956219196910325       21.128022846780112       0.0                     # C
66   1    2.1848267685318112       21.128022846780112       0.0                     # C
67   1    4.369527399613791        21.128022846780112       0.0                     # C
68   1    6.5543541681456015       21.128022846780112       0.0                     # C
69   1    8.739054799227581        21.128022846780112       0.0                     # C
70   1    10.923881567759391       21.128022846780112       0.0                     # C
71   1    13.108582198841372       21.128022846780112       0.0                     # C
72   1    15.293408967373182       21.128022846780112       0.0                     # C
73   1    19.662936366986973       22.389397345095343       0.0                     # C
74   1    21.847636998068953       22.389397345095343       0.0                     # C
75   1    24.032463766600763       22.389397345095343       0.0                     # C
76   1    26.217164397682744       22.389397345095343       0.0                     # C
77   1    28.40199116621455        22.389397345095343       0.0                     # C
78   1    30.58669179729653        22.389397345095343       0.0                     # C
79   1    32.771518565828345       22.389397345095343       0.0                     # C
80   1    34.956219196910325       22.389397345095343       0.0                     # C
81   1    2.1848267685318112       22.389397345095343       0.0                     # C
82   1    4.369527399613791        22.389397345095343       0.0                     # C
83   1    6.5543541681456015       22.389397345095343       0.0                     # C
84   1    8.739054799227581        22.389397345095343       0.0                     # C
85   1    10.923881567759391       22.389397345095343       0.0                     # C
86   1    13.108582198841372       22.389397345095343       0.0                     # C
87   1    15.293408967373182       22.389397345095343       0.0                     # C
88   1    17.478109598455163       22.389397345095343       0.0                     # C
89   1    18.570459913996153       23.02008459425296        0.0                     # C
90   1    20.755286682527963       23.02008459425296        0.0                     # C
91   1    22.93998731360994        23.02008459425296        0.0                     # C
92   1    25.124814082141757       23.02008459425296        0.0                     # C
93   1    27.30951471322373        23.02008459425296        0.0                     # C
94   1    29.494341481755544       23.02008459425296        0.0                     # C
95   1    31.679042112837525       23.02008459425296        0.0                     # C
96   1    33.863868881369335       23.02008459425296        0.0                     # C
97   1    1.0923503155409897       23.02008459425296        0.0                     # C
98   1    3.2771770840728007       23.02008459425296        0.0                     # C
99   1    5.461877715154779        23.02008459425296        0.0                     # C
100  1    7.646704483686591        23.02008459425296        0.0                     # C
101  1    9.83140511476857         23.02008459425296        0.0                     # C
102  1    12.016231883300382       23.02008459425296        0.0                     # C
103  1    14.200932514382362       23.02008459425296        0.0                     # C
104  1    16.385759282914172       23.02008459425296        0.0                     # C
105  1    18.570459913996153       24.28145909256819        0.0                     # C
106  1    20.755286682527963       24.28145909256819        0.0                     # C
107  1    22.93998731360994        24.28145909256819        0.0                     # C
108  1    25.124814082141757       24.28145909256819        0.0                     # C
109  1    27.30951471322373        24.28145909256819        0.0                     # C
110  1    29.494341481755544       24.28145909256819        0.0                     # C
111  1    31.679042112837525       24.28145909256819        0.0                     # C
112  1    33.863868881369335       24.28145909256819        0.0                     # C
113  1    1.0923503155409897       24.28145909256819        0.0                     # C
114  1    3.2771770840728007       24.28145909256819        0.0                     # C
115  1    5.461877715154779        24.28145909256819        0.0                     # C
116  1    7.646704483686591        24.28145909256819        0.0                     # C
117  1    9.83140511476857         24.28145909256819        0.0                     # C
118  1    12.016231883300382       24.28145909256819        0.0                     # C
119  1    14.200932514382362       24.28145909256819        0.0                     # C
120  1    16.385759282914172       24.28145909256819        0.0                     # C
121  1    17.478109598455163       24.912146341725805       0.0                     # C
122  1    19.662936366986973       24.912146341725805       0.0                     # C
123  1    21.847636998068953       24.912146341725805       0.0                     # C
124  1    24.032463766600763       24.912146341725805       0.0                     # C
125  1    26.217164397682744       24.912146341725805       0.0                     # C
126  1    28.40199116621455        24.912146341725805       0.0                     # C
127  1    30.58669179729653        24.912146341725805       0.0                     # C
128  1    32.771518565828345       24.912146341725805       0.0                     # C
129  1    34.956219196910325       24.912146341725805       0.0                     # C
130  1    2.1848267685318112       24.912146341725805       0.0                     # C
131  1    4.369527399613791        24.912146341725805       0.0                     # C
132  1    6.5543541681456015       24.912146341725805       0.0                     # C
133  1    8.739054799227581        24.912146341725805       0.0                     # C
134  1    10.923881567759391       24.912146341725805       0.0                     # C
135  1    13.108582198841372       24.912146341725805       0.0                     # C
136  1    15.293408967373182       24.912146341725805       0.0                     # C
137  1    19.662936366986973       26.173520840041036       0.0                     # C
138  1    21.847636998068953       26.173520840041036       0.0                     # C
139  1    24.032463766600763       26.173520840041036       0.0                     # C
140  1    26.217164397682744       26.173520840041036       0.0                     # C
141  1    28.40199116621455        26.173520840041036       0.0                     # C
142  1    30.58669179729653        26.173520840041036       0.0                     # C
143  1    32.771518565828345       26.173520840041036       0.0                     # C
144  1    34.956219196910325       26.173520840041036       0.0                     # C
145  1    2.1848267685318112       26.173520840041036       0.0                     # C
146  1    4.369527399613791        26.173520840041036       0.0                     # C
147  1    6.5543541681456015       26.173520840041036       0.0                     # C
148  1    8.739054799227581        26.173520840041036       0.0                     # C
149  1    10.923881567759391       26.173520840041036       0.0                     # C
150  1    13.108582198841372       26.173520840041036       0.0                     # C
151  1    15.293408967373182       26.173520840041036       0.0                     # C
152  1    17.478109598455163       26.173520840041036       0.0                     # C
153  1    18.570459913996153       26.804208089198653       0.0                     # C
154  1    20.755286682527963       26.804208089198653       0.0                     # C
155  1    22.93998731360994        26.804208089198653       0.0                     # C
156  1    25.124814082141757       26.804208089198653       0.0                     # C
157  1    27.30951471322373        26.804208089198653       0.0                     # C
158  1    29.494341481755544       26.804208089198653       0.0                     # C
159  1    31.679042112837525       26.804208089198653       0.0                     # C
160  1    33.863868881369335       26.804208089198653       0.0                     # C
161  1    1.0923503155409897       26.804208089198653       0.0                     # C
162  1    3.2771770840728007       26.804208089198653       0.0                     # C
163  1    5.461877715154779        26.804208089198653       0.0                     # C
164  1    7.646704483686591        26.804208089198653       0.0                     # C
165  1    9.83140511476857         26.804208089198653       0.0                     # C
166  1    12.016231883300382       26.804208089198653       0.0                     # C
167  1    14.200932514382362       26.804208089198653       0.0                     # C
168  1    16.385759282914172       26.804208089198653       0.0                     # C
169  1    18.570459913996153       28.065582587513884       0.0                     # C
170  1    20.755286682527963       28.065582587513884       0.0                     # C
171  1    22.93998731360994        28.065582587513884       0.0                     # C
172  1    25.124814082141757       28.065582587513884       0.0                     # C
173  1    27.30951471322373        28.065582587513884       0.0                     # C
174  1    29.494341481755544       28.065582587513884       0.0                     # C
175  1    31.679042112837525       28.065582587513884       0.0                     # C
176  1    33.863868881369335       28.065582587513884       0.0                     # C
177  1    1.0923503155409897       28.065582587513884       0.0                     # C
178  1    3.2771770840728007       28.065582587513884       0.0                     # C
179  1    5.461877715154779        28.065582587513884       0.0                     # C
180  1    7.646704483686591        28.065582587513884       0.0                     # C
181  1    9.83140511476857         28.065582587513884       0.0                     # C
182  1    12.016231883300382       28.065582587513884       0.0                     # C
183  1    14.200932514382362       28.065582587513884       0.0                     # C
184  1    16.385759282914172       28.065582587513884       0.0                     # C
185  1    17.478109598455163       28.696269836671497       0.0                     # C
186  1    19.662936366986973       28.696269836671497       0.0                     # C
187  1    21.847636998068953       28.696269836671497       0.0                     # C
188  1    24.032463766600763       28.696269836671497       0.0                     # C
189  1    26.217164397682744       28.696269836671497       0.0                     # C
190  1    28.40199116621455        28.696269836671497       0.0                     # C
191  1    30.58669179729653        28.696269836671497       0.0                     # C
192  1    32.771518565828345       28.696269836671497       0.0                     # C
193  1    34.956219196910325       28.696269836671497       0.0                     # C
194  1    2.1848267685318112       28.696269836671497       0.0                     # C
195  1    4.369527399613791        28.696269836671497       0.0                     # C
196  1    6.5543541681456015       28.696269836671497       0.0                     # C
197  1    8.739054799227581        28.696269836671497       0.0                     # C
198  1    10.923881567759391       28.696269836671497       0.0                     # C
199  1    13.108582198841372       28.696269836671497       0.0                     # C
200  1    15.293408967373182       28.696269836671497       0.0                     # C
201  1    19.662936366986973       29.95764433498673        0.0                     # C
202  1    21.847636998068953       29.95764433498673        0.0                     # C
203  1    24.032463766600763       29.95764433498673        0.0                     # C
204  1    26.217164397682744       29.95764433498673        0.0                     # C
205  1    28.40199116621455        29.95764433498673        0.0                     # C
206  1    30.58669179729653        29.95764433498673        0.0                     # C
207  1    32.771518565828345       29.95764433498673        0.0                     # C
208  1    34.956219196910325       29.95764433498673        0.0                     # C
209  1    2.1848267685318112       29.95764433498673        0.0                     # C
210  1    4.369527399613791        29.95764433498673        0.0                     # C
211  1    6.5543541681456015       29.95764433498673        0.0                     # C
212  1    8.739054799227581        29.95764433498673        0.0                     # C
213  1    10.923881567759391       29.95764433498673        0.0                     # C
214  1    13.108582198841372       29.95764433498673        0.0                     # C
215  1    15.293408967373182       29.95764433498673        0.0                     # C
216  1    17.478109598455163       29.95764433498673        0.0                     # C
217  1    18.570459913996153       0.31534362457880766      0.0                     # C
218  1    20.755286682527963       0.31534362457880766      0.0                     # C
219  1    22.93998731360994        0.31534362457880766      0.0                     # C
220  1    25.124814082141757       0.31534362457880766      0.0                     # C
221  1    27.30951471322373        0.31534362457880766      0.0                     # C
222  1    29.494341481755544       0.31534362457880766      0.0                     # C
223  1    31.679042112837525       0.31534362457880766      0.0                     # C
224  1    33.863868881369335       0.31534362457880766      0.0                     # C
225  1    1.0923503155409897       0.31534362457880766      0.0                     # C
226  1    3.2771770840728007       0.31534362457880766      0.0                     # C
227  1    5.461877715154779        0.31534362457880766      0.0                     # C
228  1    7.646704483686591        0.31534362457880766      0.0                     # C
229  1    9.83140511476857         0.31534362457880766      0.0                     # C
230  1    12.016231883300382       0.31534362457880766      0.0                     # C
231  1    14.200932514382362       0.31534362457880766      0.0                     # C
232  1    16.385759282914172       0.31534362457880766      0.0                     # C
233  1    18.570459913996153       1.5767181228940381       0.0                     # C
234  1    20.755286682527963       1.5767181228940381       0.0                     # C
235  1    22.93998731360994        1.5767181228940381       0.0                     # C
236  1    25.124814082141757       1.5767181228940381       0.0                     # C
237  1    27.30951471322373        1.5767181228940381       0.0                     # C
238  1    29.494341481755544       1.5767181228940381       0.0                     # C
239  1    31.679042112837525       1.5767181228940381       0.0                     # C
240  1    33.863868881369335       1.5767181228940381       0.0                     # C
241  1    1.0923503155409897       1.5767181228940381       0.0                     # C
242  1    3.2771770840728007       1.5767181228940381       0.0                     # C
243  1    5.461877715154779        1.5767181228940381       0.0                     # C
244  1    7.646704483686591        1.5767181228940381       0.0                     # C
245  1    9.83140511476857         1.5767181228940381       0.0                     # C
246  1    12.016231883300382       1.5767181228940381       0.0                     # C
247  1    14.200932514382362       1.5767181228940381       0.0                     # C
248  1    16.385759282914172       1.5767181228940381       0.0                     # C
249  1    17.478109598455163       2.2074053720516535       0.0                     # C
250  1    19.662936366986973       2.2074053720516535       0.0                     # C
251  1    21.847636998068953       2.2074053720516535       0.0                     # C
252  1    24.032463766600763       2.2074053720516535       0.0                     # C
253  1    26.217164397682744       2.2074053720516535       0.0                     # C
254  1    28.40199116621455        2.2074053720516535       0.0                     # C
255  1    30.58669179729653        2.2074053720516535       0.0                     # C
256  1    32.771518565828345       2.2074053720516535       0.0                     # C
257  1    34.956219196910325       2.2074053720516535       0.0                     # C
258  1    2.1848267685318112       2.2074053720516535       0.0                     # C
259  1    4.369527399613791        2.2074053720516535       0.0                     # C
260  1    6.5543541681456015       2.2074053720516535       0.0                     # C
261  1    8.739054799227581        2.2074053720516535       0.0                     # C
262  1    10.923881567759391       2.2074053720516535       0.0                     # C
263  1    13.108582198841372       2.2074053720516535       0.0                     # C
264  1    15.293408967373182       2.2074053720516535       0.0                     # C
265  1    19.662936366986973       3.468779870366884        0.0                     # C
266  1    21.847636998068953       3.468779870366884        0.0                     # C
267  1    24.032463766600763       3.468779870366884        0.0                     # C
268  1    26.217164397682744       3.468779870366884        0.0                     # C
269  1    28.40199116621455        3.468779870366884        0.0                     # C
270  1    30.58669179729653        3.468779870366884        0.0                     # C
271  1    32.771518565828345       3.468779870366884        0.0                     # C
272  1    34.956219196910325       3.468779870366884        0.0                     # C
273  1    2.1848267685318112       3.468779870366884        0.0                     # C
274  1    4.369527399613791        3.468779870366884        0.0                     # C
275  1    6.5543541681456015       3.468779870366884        0.0                     # C
276  1    8.739054799227581        3.468779870366884        0.0                     # C
277  1    10.923881567759391       3.468779870366884        0.0                     # C
278  1    13.108582198841372       3.468779870366884        0.0                     # C
279  1    15.293408967373182       3.468779870366884        0.0                     # C
280  1    17.478109598455163       3.468779870366884        0.0                     # C
281  1    20.755286682527963       4.099467119524499        0.0                     # C
282  1    22.93998731360994        4.099467119524499        0.0                     # C
283  1    25.124814082141757       4.099467119524499        0.0                     # C
284  1    27.30951471322373        4.099467119524499        0.0                     # C
285  1    29.494341481755544       4.099467119524499        0.0                     # C
286  1    31.679042112837525       4.099467119524499        0.0                     # C
287  1    33.863868881369335       4.099467119524499        0.0                     # C
288  1    1.0923503155409897       4.099467119524499        0.0                     # C
289  1    3.2771770840728007       4.099467119524499        0.0                     # C
290  1    5.461877715154779        4.099467119524499        0.0                     # C
291  1    7.646704483686591        4.099467119524499        0.0                     # C
292  1    9.83140511476857         4.099467119524499        0.0                     # C
293  1    12.016231883300382       4.099467119524499        0.0                     # C
294  1    14.200932514382362       4.099467119524499        0.0                     # C
295  1    22.93998731360994        5.36084161783973         0.0                     # C
296  1    25.124814082141757       5.36084161783973         0.0                     # C
297  1    27.30951471322373        5.36084161783973         0.0                     # C
298  1    29.494341481755544       5.36084161783973         0.0                     # C
299  1    31.679042112837525       5.36084161783973         0.0                     # C
300  1    33.863868881369335       5.36084161783973         0.0                     # C
301  1    1.0923503155409897       5.36084161783973         0.0                     # C
302  1    3.2771770840728007       5.36084161783973         0.0                     # C
303  1    5.461877715154779        5.36084161783973         0.0                     # C
304  1    7.646704483686591        5.36084161783973         0.0                     # C
305  1    9.83140511476857         5.36084161783973         0.0                     # C
306  1    12.016231883300382       5.36084161783973         0.0                     # C
307  1    24.032463766600763       5.991528866997345        0.0                     # C
308  1    26.217164397682744       5.991528866997345        0.0                     # C
309  1    28.40199116621455        5.991528866997345        0.0                     # C
310  1    30.58669179729653        5.991528866997345        0.0                     # C
311  1    32.771518565828345       5.991528866997345        0.0                     # C
312  1    34.956219196910325       5.991528866997345        0.0                     # C
313  1    2.1848267685318112       5.991528866997345        0.0                     # C
314  1    4.369527399613791        5.991528866997345        0.0                     # C
315  1    6.5543541681456015       5.991528866997345        0.0                     # C
316  1    8.739054799227581        5.991528866997345        0.0                     # C
317  1    10.923881567759391       5.991528866997345        0.0                     # C
318  1    26.217164397682744       7.252903365312576        0.0                     # C
319  1    28.40199116621455        7.252903365312576        0.0                     # C
320  1    30.58669179729653        7.252903365312576        0.0                     # C
321  1    32.771518565828345       7.252903365312576        0.0                     # C
322  1    34.956219196910325       7.252903365312576        0.0                     # C
323  1    2.1848267685318112       7.252903365312576        0.0                     # C
324  1    4.369527399613791        7.252903365312576        0.0                     # C
325  1    6.5543541681456015       7.252903365312576        0.0                     # C
326  1    8.739054799227581        7.252903365312576        0.0                     # C
327  1    25.124814082141757       7.883590614470191        0.0                     # C
328  1    27.30951471322373        7.883590614470191        0.0                     # C
329  1    29.494341481755544       7.883590614470191        0.0                     # C
330  1    31.679042112837525       7.883590614470191        0.0                     # C
331  1    33.863868881369335       7.883590614470191        0.0                     # C
332  1    1.0923503155409897       7.883590614470191        0.0                     # C
333  1    3.2771770840728007       7.883590614470191        0.0                     # C
334  1    5.461877715154779        7.883590614470191        0.0                     # C
335  1    7.646704483686591        7.883590614470191        0.0                     # C
336  1    9.83140511476857         7.883590614470191        0.0                     # C
337  1    27.30951471322373        9.144965112785423        0.0                     # C
338  1    29.494341481755544       9.144965112785423        0.0                     # C