DATA FILE Produced from netmc results (cf David Morley)
500 atoms
1 atom types
0.00000 38.888301693581205 xlo xhi
0.00000 33.67825708079324 ylo yhi

 Masses

1 12.0000 # Si

 Atoms # molecular

1    1    23.08995338066301        18.593204430021267       0.0                     # C
2    1    25.520400933326925       18.593204430021267       0.0                     # C
3    1    27.950988812062008       18.593204430021267       0.0                     # C
4    1    30.38143636472592        18.593204430021267       0.0                     # C
5    1    32.812024243461          18.593204430021267       0.0                     # C
6    1    35.24247179612492        18.593204430021267       0.0                     # C
7    1    37.67305967486           18.593204430021267       0.0                     # C
8    1    1.215223776331956        18.593204430021267       0.0                     # C
9    1    3.645811655067038        18.593204430021267       0.0                     # C
10   1    6.076259207730949        18.593204430021267       0.0                     # C
11   1    8.506847086466031        18.593204430021267       0.0                     # C
12   1    10.937294639129945       18.593204430021267       0.0                     # C
13   1    13.367882517865025       18.593204430021267       0.0                     # C
14   1    15.798330070528937       18.593204430021267       0.0                     # C
15   1    24.30517715699497        19.294834785871128       0.0                     # C
16   1    26.73576503573005        19.294834785871128       0.0                     # C
17   1    29.166212588393964       19.294834785871128       0.0                     # C
18   1    31.596800467129043       19.294834785871128       0.0                     # C
19   1    34.02724801979296        19.294834785871128       0.0                     # C
20   1    36.45783589852804        19.294834785871128       0.0                     # C
21   1    38.88828345119195        19.294834785871128       0.0                     # C
22   1    2.4305878787350816       19.294834785871128       0.0                     # C
23   1    4.861035431398994        19.294834785871128       0.0                     # C
24   1    7.291623310134076        19.294834785871128       0.0                     # C
25   1    9.722070862797988        19.294834785871128       0.0                     # C
26   1    12.152658741533068       19.294834785871128       0.0                     # C
27   1    14.583106294196982       19.294834785871128       0.0                     # C
28   1    21.874729604331055       20.698095497570844       0.0                     # C
29   1    24.30517715699497        20.698095497570844       0.0                     # C
30   1    26.73576503573005        20.698095497570844       0.0                     # C
31   1    29.166212588393964       20.698095497570844       0.0                     # C
32   1    31.596800467129043       20.698095497570844       0.0                     # C
33   1    34.02724801979296        20.698095497570844       0.0                     # C
34   1    36.45783589852804        20.698095497570844       0.0                     # C
35   1    38.88828345119195        20.698095497570844       0.0                     # C
36   1    2.4305878787350816       20.698095497570844       0.0                     # C
37   1    4.861035431398994        20.698095497570844       0.0                     # C
38   1    7.291623310134076        20.698095497570844       0.0                     # C
39   1    9.722070862797988        20.698095497570844       0.0                     # C
40   1    12.152658741533068       20.698095497570844       0.0                     # C
41   1    14.583106294196982       20.698095497570844       0.0                     # C
42   1    17.013694172932063       20.698095497570844       0.0                     # C
43   1    20.659365501927933       21.3997258534207         0.0                     # C
44   1    23.08995338066301        21.3997258534207         0.0                     # C
45   1    25.520400933326925       21.3997258534207         0.0                     # C
46   1    27.950988812062008       21.3997258534207         0.0                     # C
47   1    30.38143636472592        21.3997258534207         0.0                     # C
48   1    32.812024243461          21.3997258534207         0.0                     # C
49   1    35.24247179612492        21.3997258534207         0.0                     # C
50   1    37.67305967486           21.3997258534207         0.0                     # C
51   1    1.215223776331956        21.3997258534207         0.0                     # C
52   1    3.645811655067038        21.3997258534207         0.0                     # C
53   1    6.076259207730949        21.3997258534207         0.0                     # C
54   1    8.506847086466031        21.3997258534207         0.0                     # C
55   1    10.937294639129945       21.3997258534207         0.0                     # C
56   1    13.367882517865025       21.3997258534207         0.0                     # C
57   1    15.798330070528937       21.3997258534207         0.0                     # C
58   1    18.22891794926402        21.3997258534207         0.0                     # C
59   1    20.659365501927933       22.80298656512042        0.0                     # C
60   1    23.08995338066301        22.80298656512042        0.0                     # C
61   1    25.520400933326925       22.80298656512042        0.0                     # C
62   1    27.950988812062008       22.80298656512042        0.0                     # C
63   1    30.38143636472592        22.80298656512042        0.0                     # C
64   1    32.812024243461          22.80298656512042        0.0                     # C
65   1    35.24247179612492        22.80298656512042        0.0                     # C
66   1    37.67305967486           22.80298656512042        0.0                     # C
67   1    1.215223776331956        22.80298656512042        0.0                     # C
68   1    3.645811655067038        22.80298656512042        0.0                     # C
69   1    6.076259207730949        22.80298656512042        0.0                     # C
70   1    8.506847086466031        22.80298656512042        0.0                     # C
71   1    10.937294639129945       22.80298656512042        0.0                     # C
72   1    13.367882517865025       22.80298656512042        0.0                     # C
73   1    15.798330070528937       22.80298656512042        0.0                     # C
74   1    18.22891794926402        22.80298656512042        0.0                     # C
75   1    19.444141725595976       23.504616920970278       0.0                     # C
76   1    21.874729604331055       23.504616920970278       0.0                     # C
77   1    24.30517715699497        23.504616920970278       0.0                     # C
78   1    26.73576503573005        23.504616920970278       0.0                     # C
79   1    29.166212588393964       23.504616920970278       0.0                     # C
80   1    31.596800467129043       23.504616920970278       0.0                     # C
81   1    34.02724801979296        23.504616920970278       0.0                     # C
82   1    36.45783589852804        23.504616920970278       0.0                     # C
83   1    38.88828345119195        23.504616920970278       0.0                     # C
84   1    2.4305878787350816       23.504616920970278       0.0                     # C
85   1    4.861035431398994        23.504616920970278       0.0                     # C
86   1    7.291623310134076        23.504616920970278       0.0                     # C
87   1    9.722070862797988        23.504616920970278       0.0                     # C
88   1    12.152658741533068       23.504616920970278       0.0                     # C
89   1    14.583106294196982       23.504616920970278       0.0                     # C
90   1    17.013694172932063       23.504616920970278       0.0                     # C
91   1    21.874729604331055       24.90787763267           0.0                     # C
92   1    24.30517715699497        24.90787763267           0.0                     # C
93   1    26.73576503573005        24.90787763267           0.0                     # C
94   1    29.166212588393964       24.90787763267           0.0                     # C
95   1    31.596800467129043       24.90787763267           0.0                     # C
96   1    34.02724801979296        24.90787763267           0.0                     # C
97   1    36.45783589852804        24.90787763267           0.0                     # C
98   1    38.88828345119195        24.90787763267           0.0                     # C
99   1    2.4305878787350816       24.90787763267           0.0                     # C
100  1    4.861035431398994        24.90787763267           0.0                     # C
101  1    7.291623310134076        24.90787763267           0.0                     # C
102  1    9.722070862797988        24.90787763267           0.0                     # C
103  1    12.152658741533068       24.90787763267           0.0                     # C
104  1    14.583106294196982       24.90787763267           0.0                     # C
105  1    17.013694172932063       24.90787763267           0.0                     # C
106  1    19.444141725595976       24.90787763267           0.0                     # C
107  1    20.659365501927933       25.609507988519855       0.0                     # C
108  1    23.08995338066301        25.609507988519855       0.0                     # C
109  1    25.520400933326925       25.609507988519855       0.0                     # C
110  1    27.950988812062008       25.609507988519855       0.0                     # C
111  1    30.38143636472592        25.609507988519855       0.0                     # C
112  1    32.812024243461          25.609507988519855       0.0                     # C
113  1    35.24247179612492        25.609507988519855       0.0                     # C
114  1    37.67305967486           25.609507988519855       0.0                     # C
115  1    1.215223776331956        25.609507988519855       0.0                     # C
116  1    3.645811655067038        25.609507988519855       0.0                     # C
117  1    6.076259207730949        25.609507988519855       0.0                     # C
118  1    8.506847086466031        25.609507988519855       0.0                     # C
119  1    10.937294639129945       25.609507988519855       0.0                     # C
120  1    13.367882517865025       25.609507988519855       0.0                     # C
121  1    15.798330070528937       25.609507988519855       0.0                     # C
122  1    18.22891794926402        25.609507988519855       0.0                     # C
123  1    20.659365501927933       27.012768700219574       0.0                     # C
124  1    23.08995338066301        27.012768700219574       0.0                     # C
125  1    25.520400933326925       27.012768700219574       0.0                     # C
126  1    27.950988812062008       27.012768700219574       0.0                     # C
127  1    30.38143636472592        27.012768700219574       0.0                     # C
128  1    32.812024243461          27.012768700219574       0.0                     # C
129  1    35.24247179612492        27.012768700219574       0.0                     # C
130  1    37.67305967486           27.012768700219574       0.0                     # C
131  1    1.215223776331956        27.012768700219574       0.0                     # C
132  1    3.645811655067038        27.012768700219574       0.0                     # C
133  1    6.076259207730949        27.012768700219574       0.0                     # C
134  1    8.506847086466031        27.012768700219574       0.0                     # C
135  1    10.937294639129945       27.012768700219574       0.0                     # C
136  1    13.367882517865025       27.012768700219574       0.0                     # C
137  1    15.798330070528937       27.012768700219574       0.0                     # C
138  1    18.22891794926402        27.012768700219574       0.0                     # C
139  1    19.444141725595976       27.714399056069436       0.0                     # C
140  1    21.874729604331055       27.714399056069436       0.0                     # C
141  1    24.30517715699497        27.714399056069436       0.0                     # C
142  1    26.73576503573005        27.714399056069436       0.0                     # C
143  1    29.166212588393964       27.714399056069436       0.0                     # C
144  1    31.596800467129043       27.714399056069436       0.0                     # C
145  1    34.02724801979296        27.714399056069436       0.0                     # C
146  1    36.45783589852804        27.714399056069436       0.0                     # C
147  1    38.88828345119195        27.714399056069436       0.0                     # C
148  1    2.4305878787350816       27.714399056069436       0.0                     # C
149  1    4.861035431398994        27.714399056069436       0.0                     # C
150  1    7.291623310134076        27.714399056069436       0.0                     # C
151  1    9.722070862797988        27.714399056069436       0.0                     # C
152  1    12.152658741533068       27.714399056069436       0.0                     # C
153  1    14.583106294196982       27.714399056069436       0.0                     # C
154  1    17.013694172932063       27.714399056069436       0.0                     # C
155  1    21.874729604331055       29.11765976776915        0.0                     # C
156  1    24.30517715699497        29.11765976776915        0.0                     # C
157  1    26.73576503573005        29.11765976776915        0.0                     # C
158  1    29.166212588393964       29.11765976776915        0.0                     # C
159  1    31.596800467129043       29.11765976776915        0.0                     # C
160  1    34.02724801979296        29.11765976776915        0.0                     # C
161  1    36.45783589852804        29.11765976776915        0.0                     # C
162  1    38.88828345119195        29.11765976776915        0.0                     # C
163  1    2.4305878787350816       29.11765976776915        0.0                     # C
164  1    4.861035431398994        29.11765976776915        0.0                     # C
165  1    7.291623310134076        29.11765976776915        0.0                     # C
166  1    9.722070862797988        29.11765976776915        0.0                     # C
167  1    12.152658741533068       29.11765976776915        0.0                     # C
168  1    14.583106294196982       29.11765976776915        0.0                     # C
169  1    17.013694172932063       29.11765976776915        0.0                     # C
170  1    19.444141725595976       29.11765976776915        0.0                     # C
171  1    20.659365501927933       29.819290123619012       0.0                     # C
172  1    23.08995338066301        29.819290123619012       0.0                     # C
173  1    25.520400933326925       29.819290123619012       0.0                     # C
174  1    27.950988812062008       29.819290123619012       0.0                     # C
175  1    30.38143636472592        29.819290123619012       0.0                     # C
176  1    32.812024243461          29.819290123619012       0.0                     # C
177  1    35.24247179612492        29.819290123619012       0.0                     # C
178  1    37.67305967486           29.819290123619012       0.0                     # C
179  1    1.215223776331956        29.819290123619012       0.0                     # C
180  1    3.645811655067038        29.819290123619012       0.0                     # C
181  1    6.076259207730949        29.819290123619012       0.0                     # C
182  1    8.506847086466031        29.819290123619012       0.0                     # C
183  1    10.937294639129945       29.819290123619012       0.0                     # C
184  1    13.367882517865025       29.819290123619012       0.0                     # C
185  1    15.798330070528937       29.819290123619012       0.0                     # C
186  1    18.22891794926402        29.819290123619012       0.0                     # C
187  1    20.659365501927933       31.22255083531873        0.0                     # C
188  1    23.08995338066301        31.22255083531873        0.0                     # C
189  1    25.520400933326925       31.22255083531873        0.0                     # C
190  1    27.950988812062008       31.22255083531873        0.0                     # C
191  1    30.38143636472592        31.22255083531873        0.0                     # C
192  1    32.812024243461          31.22255083531873        0.0                     # C
193  1    35.24247179612492        31.22255083531873        0.0                     # C
194  1    37.67305967486           31.22255083531873        0.0                     # C
195  1    1.215223776331956        31.22255083531873        0.0                     # C
196  1    3.645811655067038        31.22255083531873        0.0                     # C
197  1    6.076259207730949        31.22255083531873        0.0                     # C
198  1    8.506847086466031        31.22255083531873        0.0                     # C
199  1    10.937294639129945       31.22255083531873        0.0                     # C
200  1    13.367882517865025       31.22255083531873        0.0                     # C
201  1    15.798330070528937       31.22255083531873        0.0                     # C
202  1    18.22891794926402        31.22255083531873        0.0                     # C
203  1    19.444141725595976       31.92418119116859        0.0                     # C
204  1    21.874729604331055       31.92418119116859        0.0                     # C
205  1    24.30517715699497        31.92418119116859        0.0                     # C
206  1    26.73576503573005        31.92418119116859        0.0                     # C
207  1    29.166212588393964       31.92418119116859        0.0                     # C
208  1    31.596800467129043       31.92418119116859        0.0                     # C
209  1    34.02724801979296        31.92418119116859        0.0                     # C
210  1    36.45783589852804        31.92418119116859        0.0                     # C
211  1    38.88828345119195        31.92418119116859        0.0                     # C
212  1    2.4305878787350816       31.92418119116859        0.0                     # C
213  1    4.861035431398994        31.92418119116859        0.0                     # C
214  1    7.291623310134076        31.92418119116859        0.0                     # C
215  1    9.722070862797988        31.92418119116859        0.0                     # C
216  1    12.152658741533068       31.92418119116859        0.0                     # C
217  1    14.583106294196982       31.92418119116859        0.0                     # C
218  1    17.013694172932063       31.92418119116859        0.0                     # C
219  1    21.874729604331055       33.32744190286831        0.0                     # C
220  1    24.30517715699497        33.32744190286831        0.0                     # C
221  1    26.73576503573005        33.32744190286831        0.0                     # C
222  1    29.166212588393964       33.32744190286831        0.0                     # C
223  1    31.596800467129043       33.32744190286831        0.0                     # C
224  1    34.02724801979296        33.32744190286831        0.0                     # C
225  1    36.45783589852804        33.32744190286831        0.0                     # C
226  1    38.88828345119195        33.32744190286831        0.0                     # C
227  1    2.4305878787350816       33.32744190286831        0.0                     # C
228  1    4.861035431398994        33.32744190286831        0.0                     # C
229  1    7.291623310134076        33.32744190286831        0.0                     # C
230  1    9.722070862797988        33.32744190286831        0.0                     # C
231  1    12.152658741533068       33.32744190286831        0.0                     # C
232  1    14.583106294196982       33.32744190286831        0.0                     # C
233  1    17.013694172932063       33.32744190286831        0.0                     # C
234  1    19.444141725595976       33.32744190286831        0.0                     # C
235  1    20.659365501927933       0.35081517792492956      0.0                     # C
236  1    23.08995338066301        0.35081517792492956      0.0                     # C
237  1    25.520400933326925       0.35081517792492956      0.0                     # C
238  1    27.950988812062008       0.35081517792492956      0.0                     # C
239  1    30.38143636472592        0.35081517792492956      0.0                     # C
240  1    32.812024243461          0.35081517792492956      0.0                     # C
241  1    35.24247179612492        0.35081517792492956      0.0                     # C
242  1    37.67305967486           0.35081517792492956      0.0                     # C
243  1    1.215223776331956        0.35081517792492956      0.0                     # C
244  1    3.645811655067038        0.35081517792492956      0.0                     # C
245  1    6.076259207730949        0.35081517792492956      0.0                     # C
246  1    8.506847086466031        0.35081517792492956      0.0                     # C
247  1    10.937294639129945       0.35081517792492956      0.0                     # C
248  1    13.367882517865025       0.35081517792492956      0.0                     # C
249  1    15.798330070528937       0.35081517792492956      0.0                     # C
250  1    18.22891794926402        0.35081517792492956      0.0                     # C
251  1    20.659365501927933       1.7540758896246476       0.0                     # C
252  1    23.08995338066301        1.7540758896246476       0.0                     # C
253  1    25.520400933326925       1.7540758896246476       0.0                     # C
254  1    27.950988812062008       1.7540758896246476       0.0                     # C
255  1    30.38143636472592        1.7540758896246476       0.0                     # C
256  1    32.812024243461          1.7540758896246476       0.0                     # C
257  1    35.24247179612492        1.7540758896246476       0.0                     # C
258  1    37.67305967486           1.7540758896246476       0.0                     # C
259  1    1.215223776331956        1.7540758896246476       0.0                     # C
260  1    3.645811655067038        1.7540758896246476       0.0                     # C
261  1    6.076259207730949        1.7540758896246476       0.0                     # C
262  1    8.506847086466031        1.7540758896246476       0.0                     # C
263  1    10.937294639129945       1.7540758896246476       0.0                     # C
264  1    13.367882517865025       1.7540758896246476       0.0                     # C
265  1    15.798330070528937       1.7540758896246476       0.0                     # C
266  1    18.22891794926402        1.7540758896246476       0.0                     # C
267  1    19.444141725595976       2.4557062454745067       0.0                     # C
268  1    21.874729604331055       2.4557062454745067       0.0                     # C
269  1    24.30517715699497        2.4557062454745067       0.0                     # C
270  1    26.73576503573005        2.4557062454745067       0.0                     # C
271  1    29.166212588393964       2.4557062454745067       0.0                     # C
272  1    31.596800467129043       2.4557062454745067       0.0                     # C
273  1    34.02724801979296        2.4557062454745067       0.0                     # C
274  1    36.45783589852804        2.4557062454745067       0.0                     # C
275  1    38.88828345119195        2.4557062454745067       0.0                     # C
276  1    2.4305878787350816       2.4557062454745067       0.0                     # C
277  1    4.861035431398994        2.4557062454745067       0.0                     # C
278  1    7.291623310134076        2.4557062454745067       0.0                     # C
279  1    9.722070862797988        2.4557062454745067       0.0                     # C
280  1    12.152658741533068       2.4557062454745067       0.0                     # C
281  1    14.583106294196982       2.4557062454745067       0.0                     # C
282  1    17.013694172932063       2.4557062454745067       0.0                     # C
283  1    21.874729604331055       3.8589669571742253       0.0                     # C
284  1    24.30517715699497        3.8589669571742253       0.0                     # C
285  1    26.73576503573005        3.8589669571742253       0.0                     # C
286  1    29.166212588393964       3.8589669571742253       0.0                     # C
287  1    31.596800467129043       3.8589669571742253       0.0                     # C
288  1    34.02724801979296        3.8589669571742253       0.0                     # C
289  1    36.45783589852804        3.8589669571742253       0.0                     # C
290  1    38.88828345119195        3.8589669571742253       0.0                     # C
291  1    2.4305878787350816       3.8589669571742253       0.0                     # C
292  1    4.861035431398994        3.8589669571742253       0.0                     # C
293  1    7.291623310134076        3.8589669571742253       0.0                     # C
294  1    9.722070862797988        3.8589669571742253       0.0                     # C
295  1    12.152658741533068       3.8589669571742253       0.0                     # C
296  1    14.583106294196982       3.8589669571742253       0.0                     # C
297  1    17.013694172932063       3.8589669571742253       0.0                     # C
298  1    19.444141725595976       3.8589669571742253       0.0                     # C
299  1    20.659365501927933       4.560597313024084        0.0                     # C
300  1    23.08995338066301        4.560597313024084        0.0                     # C
301  1    25.520400933326925       4.560597313024084        0.0                     # C
302  1    27.950988812062008       4.560597313024084        0.0                     # C
303  1    30.38143636472592        4.560597313024084        0.0                     # C
304  1    32.812024243461          4.560597313024084        0.0                     # C
305  1    35.24247179612492        4.560597313024084        0.0                     # C
306  1    37.67305967486           4.560597313024084        0.0                     # C
307  1    1.215223776331956        4.560597313024084        0.0                     # C
308  1    3.645811655067038        4.560597313024084        0.0                     # C
309  1    6.076259207730949        4.560597313024084        0.0                     # C
310  1    8.506847086466031        4.560597313024084        0.0                     # C
311  1    10.937294639129945       4.560597313024084        0.0                     # C
312  1    13.367882517865025       4.560597313024084        0.0                     # C
313  1    15.798330070528937       4.560597313024084        0.0                     # C
314  1    18.22891794926402        4.560597313024084        0.0                     # C
315  1    20.659365501927933       5.963858024723803        0.0                     # C
316  1    23.08995338066301        5.963858024723803        0.0                     # C
317  1    25.520400933326925       5.963858024723803        0.0                     # C
318  1    27.950988812062008       5.963858024723803        0.0                     # C
319  1    30.38143636472592        5.963858024723803        0.0                     # C
320  1    32.812024243461          5.963858024723803        0.0                     # C
321  1    35.24247179612492        5.963858024723803        0.0                     # C
322  1    37.67305967486           5.963858024723803        0.0                     # C
323  1    1.215223776331956        5.963858024723803        0.0                     # C
324  1    3.645811655067038        5.963858024723803        0.0                     # C
325  1    6.076259207730949        5.963858024723803        0.0                     # C
326  1    8.506847086466031        5.963858024723803        0.0                     # C
327  1    10.937294639129945       5.963858024723803        0.0                     # C
328  1    13.367882517865025       5.963858024723803        0.0                     # C
329  1    15.798330070528937       5.963858024723803        0.0                     # C
330  1    18.22891794926402        5.963858024723803        0.0                     # C
331  1    19.444141725595976       6.665488380573661        0.0                     # C
332  1    21.874729604331055       6.665488380573661        0.0                     # C
333  1    24.30517715699497        6.665488380573661        0.0                     # C
334  1    26.73576503573005        6.665488380573661        0.0                     # C
335  1    29.166212588393964       6.665488380573661        0.0                     # C
336  1    31.596800467129043       6.665488380573661        0.0                     # C
337  1    34.02724801979296        6.665488380573661        0.0                     # C
338  1    36.45783589852804        6.665488380573661        0.0                     # C