DATA FILE Produced from netmc results (cf David Morley)
500 atoms
750 bonds
1500 angles
0 dihedrals
0 impropers
1 atom types
1 bond types
1 angle types
0 dihedral types
0 improper types
0.00000 27.79674797 xlo xhi
0.00000 24.07325929 ylo yhi

# Pair Coeffs
#
# 1  Si

# Bond Coeffs
# 
# 1  Si-Si

# Angle Coeffs
# 
# 1  Si-Si-Si

 Masses

1 32.01000 # Si

 Atoms # molecular

1    1    1    16.50433644              13.29044523              0.0                     # Si
2    2    1    18.24158222              13.29044523              0.0                     # Si
3    3    1    19.9789283               13.29044523              0.0                     # Si
4    4    1    21.71617409              13.29044523              0.0                     # Si
5    5    1    23.45352017              13.29044523              0.0                     # Si
6    6    1    25.19076595              13.29044523              0.0                     # Si
7    7    1    26.92811204              13.29044523              0.0                     # Si
8    8    1    0.86862289               13.29044523              0.0                     # Si
9    9    1    2.60596898               13.29044523              0.0                     # Si
10   10   1    4.34321476               13.29044523              0.0                     # Si
11   11   1    6.08056084               13.29044523              0.0                     # Si
12   12   1    7.81780662               13.29044523              0.0                     # Si
13   13   1    9.55515271               13.29044523              0.0                     # Si
14   14   1    11.29239849              13.29044523              0.0                     # Si
15   15   1    17.37295933              13.79197147              0.0                     # Si
16   16   1    19.11030541              13.79197147              0.0                     # Si
17   17   1    20.84755119              13.79197147              0.0                     # Si
18   18   1    22.58489728              13.79197147              0.0                     # Si
19   19   1    24.32214306              13.79197147              0.0                     # Si
20   20   1    26.05948915              13.79197147              0.0                     # Si
21   21   1    27.79673493              13.79197147              0.0                     # Si
22   22   1    1.73734608               13.79197147              0.0                     # Si
23   23   1    3.47459187               13.79197147              0.0                     # Si
24   24   1    5.21193795               13.79197147              0.0                     # Si
25   25   1    6.94918373               13.79197147              0.0                     # Si
26   26   1    8.68652982               13.79197147              0.0                     # Si
27   27   1    10.4237756               13.79197147              0.0                     # Si
28   28   1    15.63571355              14.79502394              0.0                     # Si
29   29   1    17.37295933              14.79502394              0.0                     # Si
30   30   1    19.11030541              14.79502394              0.0                     # Si
31   31   1    20.84755119              14.79502394              0.0                     # Si
32   32   1    22.58489728              14.79502394              0.0                     # Si
33   33   1    24.32214306              14.79502394              0.0                     # Si
34   34   1    26.05948915              14.79502394              0.0                     # Si
35   35   1    27.79673493              14.79502394              0.0                     # Si
36   36   1    1.73734608               14.79502394              0.0                     # Si
37   37   1    3.47459187               14.79502394              0.0                     # Si
38   38   1    5.21193795               14.79502394              0.0                     # Si
39   39   1    6.94918373               14.79502394              0.0                     # Si
40   40   1    8.68652982               14.79502394              0.0                     # Si
41   41   1    10.4237756               14.79502394              0.0                     # Si
42   42   1    12.16112168              14.79502394              0.0                     # Si
43   43   1    14.76699035              15.29655018              0.0                     # Si
44   44   1    16.50433644              15.29655018              0.0                     # Si
45   45   1    18.24158222              15.29655018              0.0                     # Si
46   46   1    19.9789283               15.29655018              0.0                     # Si
47   47   1    21.71617409              15.29655018              0.0                     # Si
48   48   1    23.45352017              15.29655018              0.0                     # Si
49   49   1    25.19076595              15.29655018              0.0                     # Si
50   50   1    26.92811204              15.29655018              0.0                     # Si
51   51   1    0.86862289               15.29655018              0.0                     # Si
52   52   1    2.60596898               15.29655018              0.0                     # Si
53   53   1    4.34321476               15.29655018              0.0                     # Si
54   54   1    6.08056084               15.29655018              0.0                     # Si
55   55   1    7.81780662               15.29655018              0.0                     # Si
56   56   1    9.55515271               15.29655018              0.0                     # Si
57   57   1    11.29239849              15.29655018              0.0                     # Si
58   58   1    13.02974457              15.29655018              0.0                     # Si
59   59   1    14.76699035              16.29960265              0.0                     # Si
60   60   1    16.50433644              16.29960265              0.0                     # Si
61   61   1    18.24158222              16.29960265              0.0                     # Si
62   62   1    19.9789283               16.29960265              0.0                     # Si
63   63   1    21.71617409              16.29960265              0.0                     # Si
64   64   1    23.45352017              16.29960265              0.0                     # Si
65   65   1    25.19076595              16.29960265              0.0                     # Si
66   66   1    26.92811204              16.29960265              0.0                     # Si
67   67   1    0.86862289               16.29960265              0.0                     # Si
68   68   1    2.60596898               16.29960265              0.0                     # Si
69   69   1    4.34321476               16.29960265              0.0                     # Si
70   70   1    6.08056084               16.29960265              0.0                     # Si
71   71   1    7.81780662               16.29960265              0.0                     # Si
72   72   1    9.55515271               16.29960265              0.0                     # Si
73   73   1    11.29239849              16.29960265              0.0                     # Si
74   74   1    13.02974457              16.29960265              0.0                     # Si
75   75   1    13.89836746              16.80112888              0.0                     # Si
76   76   1    15.63571355              16.80112888              0.0                     # Si
77   77   1    17.37295933              16.80112888              0.0                     # Si
78   78   1    19.11030541              16.80112888              0.0                     # Si
79   79   1    20.84755119              16.80112888              0.0                     # Si
80   80   1    22.58489728              16.80112888              0.0                     # Si
81   81   1    24.32214306              16.80112888              0.0                     # Si
82   82   1    26.05948915              16.80112888              0.0                     # Si
83   83   1    27.79673493              16.80112888              0.0                     # Si
84   84   1    1.73734608               16.80112888              0.0                     # Si
85   85   1    3.47459187               16.80112888              0.0                     # Si
86   86   1    5.21193795               16.80112888              0.0                     # Si
87   87   1    6.94918373               16.80112888              0.0                     # Si
88   88   1    8.68652982               16.80112888              0.0                     # Si
89   89   1    10.4237756               16.80112888              0.0                     # Si
90   90   1    12.16112168              16.80112888              0.0                     # Si
91   91   1    15.63571355              17.80418135              0.0                     # Si
92   92   1    17.37295933              17.80418135              0.0                     # Si
93   93   1    19.11030541              17.80418135              0.0                     # Si
94   94   1    20.84755119              17.80418135              0.0                     # Si
95   95   1    22.58489728              17.80418135              0.0                     # Si
96   96   1    24.32214306              17.80418135              0.0                     # Si
97   97   1    26.05948915              17.80418135              0.0                     # Si
98   98   1    27.79673493              17.80418135              0.0                     # Si
99   99   1    1.73734608               17.80418135              0.0                     # Si
100  100  1    3.47459187               17.80418135              0.0                     # Si
101  101  1    5.21193795               17.80418135              0.0                     # Si
102  102  1    6.94918373               17.80418135              0.0                     # Si
103  103  1    8.68652982               17.80418135              0.0                     # Si
104  104  1    10.4237756               17.80418135              0.0                     # Si
105  105  1    12.16112168              17.80418135              0.0                     # Si
106  106  1    13.89836746              17.80418135              0.0                     # Si
107  107  1    14.76699035              18.30570759              0.0                     # Si
108  108  1    16.50433644              18.30570759              0.0                     # Si
109  109  1    18.24158222              18.30570759              0.0                     # Si
110  110  1    19.9789283               18.30570759              0.0                     # Si
111  111  1    21.71617409              18.30570759              0.0                     # Si
112  112  1    23.45352017              18.30570759              0.0                     # Si
113  113  1    25.19076595              18.30570759              0.0                     # Si
114  114  1    26.92811204              18.30570759              0.0                     # Si
115  115  1    0.86862289               18.30570759              0.0                     # Si
116  116  1    2.60596898               18.30570759              0.0                     # Si
117  117  1    4.34321476               18.30570759              0.0                     # Si
118  118  1    6.08056084               18.30570759              0.0                     # Si
119  119  1    7.81780662               18.30570759              0.0                     # Si
120  120  1    9.55515271               18.30570759              0.0                     # Si
121  121  1    11.29239849              18.30570759              0.0                     # Si
122  122  1    13.02974457              18.30570759              0.0                     # Si
123  123  1    14.76699035              19.30876006              0.0                     # Si
124  124  1    16.50433644              19.30876006              0.0                     # Si
125  125  1    18.24158222              19.30876006              0.0                     # Si
126  126  1    19.9789283               19.30876006              0.0                     # Si
127  127  1    21.71617409              19.30876006              0.0                     # Si
128  128  1    23.45352017              19.30876006              0.0                     # Si
129  129  1    25.19076595              19.30876006              0.0                     # Si
130  130  1    26.92811204              19.30876006              0.0                     # Si
131  131  1    0.86862289               19.30876006              0.0                     # Si
132  132  1    2.60596898               19.30876006              0.0                     # Si
133  133  1    4.34321476               19.30876006              0.0                     # Si
134  134  1    6.08056084               19.30876006              0.0                     # Si
135  135  1    7.81780662               19.30876006              0.0                     # Si
136  136  1    9.55515271               19.30876006              0.0                     # Si
137  137  1    11.29239849              19.30876006              0.0                     # Si
138  138  1    13.02974457              19.30876006              0.0                     # Si
139  139  1    13.89836746              19.81028629              0.0                     # Si
140  140  1    15.63571355              19.81028629              0.0                     # Si
141  141  1    17.37295933              19.81028629              0.0                     # Si
142  142  1    19.11030541              19.81028629              0.0                     # Si
143  143  1    20.84755119              19.81028629              0.0                     # Si
144  144  1    22.58489728              19.81028629              0.0                     # Si
145  145  1    24.32214306              19.81028629              0.0                     # Si
146  146  1    26.05948915              19.81028629              0.0                     # Si
147  147  1    27.79673493              19.81028629              0.0                     # Si
148  148  1    1.73734608               19.81028629              0.0                     # Si
149  149  1    3.47459187               19.81028629              0.0                     # Si
150  150  1    5.21193795               19.81028629              0.0                     # Si
151  151  1    6.94918373               19.81028629              0.0                     # Si
152  152  1    8.68652982               19.81028629              0.0                     # Si
153  153  1    10.4237756               19.81028629              0.0                     # Si
154  154  1    12.16112168              19.81028629              0.0                     # Si
155  155  1    15.63571355              20.81333876              0.0                     # Si
156  156  1    17.37295933              20.81333876              0.0                     # Si
157  157  1    19.11030541              20.81333876              0.0                     # Si
158  158  1    20.84755119              20.81333876              0.0                     # Si
159  159  1    22.58489728              20.81333876              0.0                     # Si
160  160  1    24.32214306              20.81333876              0.0                     # Si
161  161  1    26.05948915              20.81333876              0.0                     # Si
162  162  1    27.79673493              20.81333876              0.0                     # Si
163  163  1    1.73734608               20.81333876              0.0                     # Si
164  164  1    3.47459187               20.81333876              0.0                     # Si
165  165  1    5.21193795               20.81333876              0.0                     # Si
166  166  1    6.94918373               20.81333876              0.0                     # Si
167  167  1    8.68652982               20.81333876              0.0                     # Si
168  168  1    10.4237756               20.81333876              0.0                     # Si
169  169  1    12.16112168              20.81333876              0.0                     # Si
170  170  1    13.89836746              20.81333876              0.0                     # Si
171  171  1    14.76699035              21.314865                0.0                     # Si
172  172  1    16.50433644              21.314865                0.0                     # Si
173  173  1    18.24158222              21.314865                0.0                     # Si
174  174  1    19.9789283               21.314865                0.0                     # Si
175  175  1    21.71617409              21.314865                0.0                     # Si
176  176  1    23.45352017              21.314865                0.0                     # Si
177  177  1    25.19076595              21.314865                0.0                     # Si
178  178  1    26.92811204              21.314865                0.0                     # Si
179  179  1    0.86862289               21.314865                0.0                     # Si
180  180  1    2.60596898               21.314865                0.0                     # Si
181  181  1    4.34321476               21.314865                0.0                     # Si
182  182  1    6.08056084               21.314865                0.0                     # Si
183  183  1    7.81780662               21.314865                0.0                     # Si
184  184  1    9.55515271               21.314865                0.0                     # Si
185  185  1    11.29239849              21.314865                0.0                     # Si
186  186  1    13.02974457              21.314865                0.0                     # Si
187  187  1    14.76699035              22.31791747              0.0                     # Si
188  188  1    16.50433644              22.31791747              0.0                     # Si
189  189  1    18.24158222              22.31791747              0.0                     # Si
190  190  1    19.9789283               22.31791747              0.0                     # Si
191  191  1    21.71617409              22.31791747              0.0                     # Si
192  192  1    23.45352017              22.31791747              0.0                     # Si
193  193  1    25.19076595              22.31791747              0.0                     # Si
194  194  1    26.92811204              22.31791747              0.0                     # Si
195  195  1    0.86862289               22.31791747              0.0                     # Si
196  196  1    2.60596898               22.31791747              0.0                     # Si
197  197  1    4.34321476               22.31791747              0.0                     # Si
198  198  1    6.08056084               22.31791747              0.0                     # Si
199  199  1    7.81780662               22.31791747              0.0                     # Si
200  200  1    9.55515271               22.31791747              0.0                     # Si
201  201  1    11.29239849              22.31791747              0.0                     # Si
202  202  1    13.02974457              22.31791747              0.0                     # Si
203  203  1    13.89836746              22.8194437               0.0                     # Si
204  204  1    15.63571355              22.8194437               0.0                     # Si
205  205  1    17.37295933              22.8194437               0.0                     # Si
206  206  1    19.11030541              22.8194437               0.0                     # Si
207  207  1    20.84755119              22.8194437               0.0                     # Si
208  208  1    22.58489728              22.8194437               0.0                     # Si
209  209  1    24.32214306              22.8194437               0.0                     # Si
210  210  1    26.05948915              22.8194437               0.0                     # Si
211  211  1    27.79673493              22.8194437               0.0                     # Si
212  212  1    1.73734608               22.8194437               0.0                     # Si
213  213  1    3.47459187               22.8194437               0.0                     # Si
214  214  1    5.21193795               22.8194437               0.0                     # Si
215  215  1    6.94918373               22.8194437               0.0                     # Si
216  216  1    8.68652982               22.8194437               0.0                     # Si
217  217  1    10.4237756               22.8194437               0.0                     # Si
218  218  1    12.16112168              22.8194437               0.0                     # Si
219  219  1    15.63571355              23.82249617              0.0                     # Si
220  220  1    17.37295933              23.82249617              0.0                     # Si
221  221  1    19.11030541              23.82249617              0.0                     # Si
222  222  1    20.84755119              23.82249617              0.0                     # Si
223  223  1    22.58489728              23.82249617              0.0                     # Si
224  224  1    24.32214306              23.82249617              0.0                     # Si
225  225  1    26.05948915              23.82249617              0.0                     # Si
226  226  1    27.79673493              23.82249617              0.0                     # Si
227  227  1    1.73734608               23.82249617              0.0                     # Si
228  228  1    3.47459187               23.82249617              0.0                     # Si
229  229  1    5.21193795               23.82249617              0.0                     # Si
230  230  1    6.94918373               23.82249617              0.0                     # Si
231  231  1    8.68652982               23.82249617              0.0                     # Si
232  232  1    10.4237756               23.82249617              0.0                     # Si
233  233  1    12.16112168              23.82249617              0.0                     # Si
234  234  1    13.89836746              23.82249617              0.0                     # Si
235  235  1    14.76699035              0.25076312               0.0                     # Si
236  236  1    16.50433644              0.25076312               0.0                     # Si
237  237  1    18.24158222              0.25076312               0.0                     # Si
238  238  1    19.9789283               0.25076312               0.0                     # Si
239  239  1    21.71617409              0.25076312               0.0                     # Si
240  240  1    23.45352017              0.25076312               0.0                     # Si
241  241  1    25.19076595              0.25076312               0.0                     # Si
242  242  1    26.92811204              0.25076312               0.0                     # Si
243  243  1    0.86862289               0.25076312               0.0                     # Si
244  244  1    2.60596898               0.25076312               0.0                     # Si
245  245  1    4.34321476               0.25076312               0.0                     # Si
246  246  1    6.08056084               0.25076312               0.0                     # Si
247  247  1    7.81780662               0.25076312               0.0                     # Si
248  248  1    9.55515271               0.25076312               0.0                     # Si
249  249  1    11.29239849              0.25076312               0.0                     # Si
250  250  1    13.02974457              0.25076312               0.0                     # Si
251  251  1    14.76699035              1.25381559               0.0                     # Si
252  252  1    16.50433644              1.25381559               0.0                     # Si
253  253  1    18.24158222              1.25381559               0.0                     # Si
254  254  1    19.9789283               1.25381559               0.0                     # Si
255  255  1    21.71617409              1.25381559               0.0                     # Si
256  256  1    23.45352017              1.25381559               0.0                     # Si
257  257  1    25.19076595              1.25381559               0.0                     # Si
258  258  1    26.92811204              1.25381559               0.0                     # Si
259  259  1    0.86862289               1.25381559               0.0                     # Si
260  260  1    2.60596898               1.25381559               0.0                     # Si
261  261  1    4.34321476               1.25381559               0.0                     # Si
262  262  1    6.08056084               1.25381559               0.0                     # Si
263  263  1    7.81780662               1.25381559               0.0                     # Si
264  264  1    9.55515271               1.25381559               0.0                     # Si
265  265  1    11.29239849              1.25381559               0.0                     # Si
266  266  1    13.02974457              1.25381559               0.0                     # Si
267  267  1    13.89836746              1.75534182               0.0                     # Si
268  268  1    15.63571355              1.75534182               0.0                     # Si
269  269  1    17.37295933              1.75534182               0.0                     # Si
270  270  1    19.11030541              1.75534182               0.0                     # Si
271  271  1    20.84755119              1.75534182               0.0                     # Si
272  272  1    22.58489728              1.75534182               0.0                     # Si
273  273  1    24.32214306              1.75534182               0.0                     # Si
274  274  1    26.05948915              1.75534182               0.0                     # Si
275  275  1    27.79673493              1.75534182               0.0                     # Si
276  276  1    1.73734608               1.75534182               0.0                     # Si
277  277  1    3.47459187               1.75534182               0.0                     # Si
278  278  1    5.21193795               1.75534182               0.0                     # Si
279  279  1    6.94918373               1.75534182               0.0                     # Si
280  280  1    8.68652982               1.75534182               0.0                     # Si
281  281  1    10.4237756               1.75534182               0.0                     # Si
282  282  1    12.16112168              1.75534182               0.0                     # Si
283  283  1    15.63571355              2.75839429               0.0                     # Si
284  284  1    17.37295933              2.75839429               0.0                     # Si
285  285  1    19.11030541              2.75839429               0.0                     # Si
286  286  1    20.84755119              2.75839429               0.0                     # Si
287  287  1    22.58489728              2.75839429               0.0                     # Si
288  288  1    24.32214306              2.75839429               0.0                     # Si
289  289  1    26.05948915              2.75839429               0.0                     # Si
290  290  1    27.79673493              2.75839429               0.0                     # Si
291  291  1    1.73734608               2.75839429               0.0                     # Si
292  292  1    3.47459187               2.75839429               0.0                     # Si
293  293  1    5.21193795               2.75839429               0.0                     # Si
294  294  1    6.94918373               2.75839429               0.0                     # Si
295  295  1    8.68652982               2.75839429               0.0                     # Si
296  296  1    10.4237756               2.75839429               0.0                     # Si
297  297  1    12.16112168              2.75839429               0.0                     # Si
298  298  1    13.89836746              2.75839429               0.0                     # Si
299  299  1    14.76699035              3.25992053               0.0                     # Si
300  300  1    16.50433644              3.25992053               0.0                     # Si
301  301  1    18.24158222              3.25992053               0.0                     # Si
302  302  1    19.9789283               3.25992053               0.0                     # Si
303  303  1    21.71617409              3.25992053               0.0                     # Si
304  304  1    23.45352017              3.25992053               0.0                     # Si
305  305  1    25.19076595              3.25992053               0.0                     # Si
306  306  1    26.92811204              3.25992053               0.0                     # Si
307  307  1    0.86862289               3.25992053               0.0                     # Si
308  308  1    2.60596898               3.25992053               0.0                     # Si
309  309  1    4.34321476               3.25992053               0.0                     # Si
310  310  1    6.08056084               3.25992053               0.0                     # Si
311  311  1    7.81780662               3.25992053               0.0                     # Si
312  312  1    9.55515271               3.25992053               0.0                     # Si
313  313  1    11.29239849              3.25992053               0.0                     # Si
314  314  1    13.02974457              3.25992053               0.0                     # Si
315  315  1    14.76699035              4.262973                 0.0                     # Si