DATA FILE Produced from netmc results (cf David Morley)
1250 atoms
3000 bonds
0 angles
0 dihedrals
0 impropers
2 atom types
2 bond types
0 angle types
0 dihedral types
0 improper types
0.00000 159.36855502944195 xlo xhi
0.00000 138.0204818217226 ylo yhi

# Pair Coeffs
#
# 1  O
# 2  Si

# Bond Coeffs
# 
# 1  O-O
# 2  Si-O
# 3  O-O rep
# 4  Si-Si rep

 Masses

1 28.10000 # O 
2 32.01000 # Si

 Atoms # molecular

1    1    2    94.62517892385539        76.19880765508985        5.0                      # Si
2    2    2    104.5854213949676        76.19880765508985        5.0                      # Si
3    3    2    114.54623892133756       76.19880765508985        5.0                      # Si
4    4    2    124.5064814497833        76.19880765508985        5.0                      # Si
5    5    2    134.46729897615327       76.19880765508985        5.0                      # Si
6    6    2    144.42754144726547       76.19880765508985        5.0                      # Si
7    7    2    154.38835903096899       76.19880765508985        5.0                      # Si
8    8    2    4.9801212355560995       76.19880765508985        5.0                      # Si
9    9    2    14.940938819259609       76.19880765508985        5.0                      # Si
10   10   2    24.90118129037181        76.19880765508985        5.0                      # Si
11   11   2    34.861998816741796       76.19880765508985        5.0                      # Si
12   12   2    44.82224128785399        76.19880765508985        5.0                      # Si
13   13   2    54.78305887155749        76.19880765508985        5.0                      # Si
14   14   2    64.7433013426697         76.19880765508985        5.0                      # Si
15   15   2    99.60530015941148        79.07423438718139        5.0                      # Si
16   16   2    109.56611768578146       79.07423438718139        5.0                      # Si
17   17   2    119.52636015689367       79.07423438718139        5.0                      # Si
18   18   2    129.4871777405972        79.07423438718139        5.0                      # Si
19   19   2    139.44742021170936       79.07423438718139        5.0                      # Si
20   20   2    149.4082377954129        79.07423438718139        5.0                      # Si
21   21   2    159.36848026652507       79.07423438718139        5.0                      # Si
22   22   2    9.960817526369983        79.07423438718139        5.0                      # Si
23   23   2    19.921060054815705       79.07423438718139        5.0                      # Si
24   24   2    29.88187758118569        79.07423438718139        5.0                      # Si
25   25   2    39.842120052297886       79.07423438718139        5.0                      # Si
26   26   2    49.8029376360014         79.07423438718139        5.0                      # Si
27   27   2    59.7631801071136         79.07423438718139        5.0                      # Si
28   28   2    89.64505768829929        84.82508779403094        5.0                      # Si
29   29   2    99.60530015941148        84.82508779403094        5.0                      # Si
30   30   2    109.56611768578146       84.82508779403094        5.0                      # Si
31   31   2    119.52636015689367       84.82508779403094        5.0                      # Si
32   32   2    129.4871777405972        84.82508779403094        5.0                      # Si
33   33   2    139.44742021170936       84.82508779403094        5.0                      # Si
34   34   2    149.4082377954129        84.82508779403094        5.0                      # Si
35   35   2    159.36848026652507       84.82508779403094        5.0                      # Si
36   36   2    9.960817526369983        84.82508779403094        5.0                      # Si
37   37   2    19.921060054815705       84.82508779403094        5.0                      # Si
38   38   2    29.88187758118569        84.82508779403094        5.0                      # Si
39   39   2    39.842120052297886       84.82508779403094        5.0                      # Si
40   40   2    49.8029376360014         84.82508779403094        5.0                      # Si
41   41   2    59.7631801071136         84.82508779403094        5.0                      # Si
42   42   2    69.72399763348359        84.82508779403094        5.0                      # Si
43   43   2    84.66436134015188        87.70051452612246        5.0                      # Si
44   44   2    94.62517892385539        87.70051452612246        5.0                      # Si
45   45   2    104.5854213949676        87.70051452612246        5.0                      # Si
46   46   2    114.54623892133756       87.70051452612246        5.0                      # Si
47   47   2    124.5064814497833        87.70051452612246        5.0                      # Si
48   48   2    134.46729897615327       87.70051452612246        5.0                      # Si
49   49   2    144.42754144726547       87.70051452612246        5.0                      # Si
50   50   2    154.38835903096899       87.70051452612246        5.0                      # Si
51   51   2    4.9801212355560995       87.70051452612246        5.0                      # Si
52   52   2    14.940938819259609       87.70051452612246        5.0                      # Si
53   53   2    24.90118129037181        87.70051452612246        5.0                      # Si
54   54   2    34.861998816741796       87.70051452612246        5.0                      # Si
55   55   2    44.82224128785399        87.70051452612246        5.0                      # Si
56   56   2    54.78305887155749        87.70051452612246        5.0                      # Si
57   57   2    64.7433013426697         87.70051452612246        5.0                      # Si
58   58   2    74.70411886903968        87.70051452612246        5.0                      # Si
59   59   2    84.66436134015188        93.45136793297202        5.0                      # Si
60   60   2    94.62517892385539        93.45136793297202        5.0                      # Si
61   61   2    104.5854213949676        93.45136793297202        5.0                      # Si
62   62   2    114.54623892133756       93.45136793297202        5.0                      # Si
63   63   2    124.5064814497833        93.45136793297202        5.0                      # Si
64   64   2    134.46729897615327       93.45136793297202        5.0                      # Si
65   65   2    144.42754144726547       93.45136793297202        5.0                      # Si
66   66   2    154.38835903096899       93.45136793297202        5.0                      # Si
67   67   2    4.9801212355560995       93.45136793297202        5.0                      # Si
68   68   2    14.940938819259609       93.45136793297202        5.0                      # Si
69   69   2    24.90118129037181        93.45136793297202        5.0                      # Si
70   70   2    34.861998816741796       93.45136793297202        5.0                      # Si
71   71   2    44.82224128785399        93.45136793297202        5.0                      # Si
72   72   2    54.78305887155749        93.45136793297202        5.0                      # Si
73   73   2    64.7433013426697         93.45136793297202        5.0                      # Si
74   74   2    74.70411886903968        93.45136793297202        5.0                      # Si
75   75   2    79.68424010459577        96.32679460773002        5.0                      # Si
76   76   2    89.64505768829929        96.32679460773002        5.0                      # Si
77   77   2    99.60530015941148        96.32679460773002        5.0                      # Si
78   78   2    109.56611768578146       96.32679460773002        5.0                      # Si
79   79   2    119.52636015689367       96.32679460773002        5.0                      # Si
80   80   2    129.4871777405972        96.32679460773002        5.0                      # Si
81   81   2    139.44742021170936       96.32679460773002        5.0                      # Si
82   82   2    149.4082377954129        96.32679460773002        5.0                      # Si
83   83   2    159.36848026652507       96.32679460773002        5.0                      # Si
84   84   2    9.960817526369983        96.32679460773002        5.0                      # Si
85   85   2    19.921060054815705       96.32679460773002        5.0                      # Si
86   86   2    29.88187758118569        96.32679460773002        5.0                      # Si
87   87   2    39.842120052297886       96.32679460773002        5.0                      # Si
88   88   2    49.8029376360014         96.32679460773002        5.0                      # Si
89   89   2    59.7631801071136         96.32679460773002        5.0                      # Si
90   90   2    69.72399763348359        96.32679460773002        5.0                      # Si
91   91   2    89.64505768829929        102.07764801457957       5.0                      # Si
92   92   2    99.60530015941148        102.07764801457957       5.0                      # Si
93   93   2    109.56611768578146       102.07764801457957       5.0                      # Si
94   94   2    119.52636015689367       102.07764801457957       5.0                      # Si
95   95   2    129.4871777405972        102.07764801457957       5.0                      # Si
96   96   2    139.44742021170936       102.07764801457957       5.0                      # Si
97   97   2    149.4082377954129        102.07764801457957       5.0                      # Si
98   98   2    159.36848026652507       102.07764801457957       5.0                      # Si
99   99   2    9.960817526369983        102.07764801457957       5.0                      # Si
100  100  2    19.921060054815705       102.07764801457957       5.0                      # Si
101  101  2    29.88187758118569        102.07764801457957       5.0                      # Si
102  102  2    39.842120052297886       102.07764801457957       5.0                      # Si
103  103  2    49.8029376360014         102.07764801457957       5.0                      # Si
104  104  2    59.7631801071136         102.07764801457957       5.0                      # Si
105  105  2    69.72399763348359        102.07764801457957       5.0                      # Si
106  106  2    79.68424010459577        102.07764801457957       5.0                      # Si
107  107  2    84.66436134015188        104.9530747466711        5.0                      # Si
108  108  2    94.62517892385539        104.9530747466711        5.0                      # Si
109  109  2    104.5854213949676        104.9530747466711        5.0                      # Si
110  110  2    114.54623892133756       104.9530747466711        5.0                      # Si
111  111  2    124.5064814497833        104.9530747466711        5.0                      # Si
112  112  2    134.46729897615327       104.9530747466711        5.0                      # Si
113  113  2    144.42754144726547       104.9530747466711        5.0                      # Si
114  114  2    154.38835903096899       104.9530747466711        5.0                      # Si
115  115  2    4.9801212355560995       104.9530747466711        5.0                      # Si
116  116  2    14.940938819259609       104.9530747466711        5.0                      # Si
117  117  2    24.90118129037181        104.9530747466711        5.0                      # Si
118  118  2    34.861998816741796       104.9530747466711        5.0                      # Si
119  119  2    44.82224128785399        104.9530747466711        5.0                      # Si
120  120  2    54.78305887155749        104.9530747466711        5.0                      # Si
121  121  2    64.7433013426697         104.9530747466711        5.0                      # Si
122  122  2    74.70411886903968        104.9530747466711        5.0                      # Si
123  123  2    84.66436134015188        110.70392815352065       5.0                      # Si
124  124  2    94.62517892385539        110.70392815352065       5.0                      # Si
125  125  2    104.5854213949676        110.70392815352065       5.0                      # Si
126  126  2    114.54623892133756       110.70392815352065       5.0                      # Si
127  127  2    124.5064814497833        110.70392815352065       5.0                      # Si
128  128  2    134.46729897615327       110.70392815352065       5.0                      # Si
129  129  2    144.42754144726547       110.70392815352065       5.0                      # Si
130  130  2    154.38835903096899       110.70392815352065       5.0                      # Si
131  131  2    4.9801212355560995       110.70392815352065       5.0                      # Si
132  132  2    14.940938819259609       110.70392815352065       5.0                      # Si
133  133  2    24.90118129037181        110.70392815352065       5.0                      # Si
134  134  2    34.861998816741796       110.70392815352065       5.0                      # Si
135  135  2    44.82224128785399        110.70392815352065       5.0                      # Si
136  136  2    54.78305887155749        110.70392815352065       5.0                      # Si
137  137  2    64.7433013426697         110.70392815352065       5.0                      # Si
138  138  2    74.70411886903968        110.70392815352065       5.0                      # Si
139  139  2    79.68424010459577        113.57935482827865       5.0                      # Si
140  140  2    89.64505768829929        113.57935482827865       5.0                      # Si
141  141  2    99.60530015941148        113.57935482827865       5.0                      # Si
142  142  2    109.56611768578146       113.57935482827865       5.0                      # Si
143  143  2    119.52636015689367       113.57935482827865       5.0                      # Si
144  144  2    129.4871777405972        113.57935482827865       5.0                      # Si
145  145  2    139.44742021170936       113.57935482827865       5.0                      # Si
146  146  2    149.4082377954129        113.57935482827865       5.0                      # Si
147  147  2    159.36848026652507       113.57935482827865       5.0                      # Si
148  148  2    9.960817526369983        113.57935482827865       5.0                      # Si
149  149  2    19.921060054815705       113.57935482827865       5.0                      # Si
150  150  2    29.88187758118569        113.57935482827865       5.0                      # Si
151  151  2    39.842120052297886       113.57935482827865       5.0                      # Si
152  152  2    49.8029376360014         113.57935482827865       5.0                      # Si
153  153  2    59.7631801071136         113.57935482827865       5.0                      # Si
154  154  2    69.72399763348359        113.57935482827865       5.0                      # Si
155  155  2    89.64505768829929        119.3302082351282        5.0                      # Si
156  156  2    99.60530015941148        119.3302082351282        5.0                      # Si
157  157  2    109.56611768578146       119.3302082351282        5.0                      # Si
158  158  2    119.52636015689367       119.3302082351282        5.0                      # Si
159  159  2    129.4871777405972        119.3302082351282        5.0                      # Si
160  160  2    139.44742021170936       119.3302082351282        5.0                      # Si
161  161  2    149.4082377954129        119.3302082351282        5.0                      # Si
162  162  2    159.36848026652507       119.3302082351282        5.0                      # Si
163  163  2    9.960817526369983        119.3302082351282        5.0                      # Si
164  164  2    19.921060054815705       119.3302082351282        5.0                      # Si
165  165  2    29.88187758118569        119.3302082351282        5.0                      # Si
166  166  2    39.842120052297886       119.3302082351282        5.0                      # Si
167  167  2    49.8029376360014         119.3302082351282        5.0                      # Si
168  168  2    59.7631801071136         119.3302082351282        5.0                      # Si
169  169  2    69.72399763348359        119.3302082351282        5.0                      # Si
170  170  2    79.68424010459577        119.3302082351282        5.0                      # Si
171  171  2    84.66436134015188        122.20563496721974       5.0                      # Si
172  172  2    94.62517892385539        122.20563496721974       5.0                      # Si
173  173  2    104.5854213949676        122.20563496721974       5.0                      # Si
174  174  2    114.54623892133756       122.20563496721974       5.0                      # Si
175  175  2    124.5064814497833        122.20563496721974       5.0                      # Si
176  176  2    134.46729897615327       122.20563496721974       5.0                      # Si
177  177  2    144.42754144726547       122.20563496721974       5.0                      # Si
178  178  2    154.38835903096899       122.20563496721974       5.0                      # Si
179  179  2    4.9801212355560995       122.20563496721974       5.0                      # Si
180  180  2    14.940938819259609       122.20563496721974       5.0                      # Si
181  181  2    24.90118129037181        122.20563496721974       5.0                      # Si
182  182  2    34.861998816741796       122.20563496721974       5.0                      # Si
183  183  2    44.82224128785399        122.20563496721974       5.0                      # Si
184  184  2    54.78305887155749        122.20563496721974       5.0                      # Si
185  185  2    64.7433013426697         122.20563496721974       5.0                      # Si
186  186  2    74.70411886903968        122.20563496721974       5.0                      # Si
187  187  2    84.66436134015188        127.95648837406928       5.0                      # Si
188  188  2    94.62517892385539        127.95648837406928       5.0                      # Si
189  189  2    104.5854213949676        127.95648837406928       5.0                      # Si
190  190  2    114.54623892133756       127.95648837406928       5.0                      # Si
191  191  2    124.5064814497833        127.95648837406928       5.0                      # Si
192  192  2    134.46729897615327       127.95648837406928       5.0                      # Si
193  193  2    144.42754144726547       127.95648837406928       5.0                      # Si
194  194  2    154.38835903096899       127.95648837406928       5.0                      # Si
195  195  2    4.9801212355560995       127.95648837406928       5.0                      # Si
196  196  2    14.940938819259609       127.95648837406928       5.0                      # Si
197  197  2    24.90118129037181        127.95648837406928       5.0                      # Si
198  198  2    34.861998816741796       127.95648837406928       5.0                      # Si
199  199  2    44.82224128785399        127.95648837406928       5.0                      # Si
200  200  2    54.78305887155749        127.95648837406928       5.0                      # Si
201  201  2    64.7433013426697         127.95648837406928       5.0                      # Si
202  202  2    74.70411886903968        127.95648837406928       5.0                      # Si
203  203  2    79.68424010459577        130.83191504882728       5.0                      # Si
204  204  2    89.64505768829929        130.83191504882728       5.0                      # Si
205  205  2    99.60530015941148        130.83191504882728       5.0                      # Si
206  206  2    109.56611768578146       130.83191504882728       5.0                      # Si
207  207  2    119.52636015689367       130.83191504882728       5.0                      # Si
208  208  2    129.4871777405972        130.83191504882728       5.0                      # Si
209  209  2    139.44742021170936       130.83191504882728       5.0                      # Si
210  210  2    149.4082377954129        130.83191504882728       5.0                      # Si
211  211  2    159.36848026652507       130.83191504882728       5.0                      # Si
212  212  2    9.960817526369983        130.83191504882728       5.0                      # Si
213  213  2    19.921060054815705       130.83191504882728       5.0                      # Si
214  214  2    29.88187758118569        130.83191504882728       5.0                      # Si
215  215  2    39.842120052297886       130.83191504882728       5.0                      # Si
216  216  2    49.8029376360014         130.83191504882728       5.0                      # Si
217  217  2    59.7631801071136         130.83191504882728       5.0                      # Si
218  218  2    69.72399763348359        130.83191504882728       5.0                      # Si
219  219  2    89.64505768829929        136.58276845567684       5.0                      # Si
220  220  2    99.60530015941148        136.58276845567684       5.0                      # Si
221  221  2    109.56611768578146       136.58276845567684       5.0                      # Si
222  222  2    119.52636015689367       136.58276845567684       5.0                      # Si
223  223  2    129.4871777405972        136.58276845567684       5.0                      # Si
224  224  2    139.44742021170936       136.58276845567684       5.0                      # Si
225  225  2    149.4082377954129        136.58276845567684       5.0                      # Si
226  226  2    159.36848026652507       136.58276845567684       5.0                      # Si
227  227  2    9.960817526369983        136.58276845567684       5.0                      # Si
228  228  2    19.921060054815705       136.58276845567684       5.0                      # Si
229  229  2    29.88187758118569        136.58276845567684       5.0                      # Si
230  230  2    39.842120052297886       136.58276845567684       5.0                      # Si
231  231  2    49.8029376360014         136.58276845567684       5.0                      # Si
232  232  2    59.7631801071136         136.58276845567684       5.0                      # Si
233  233  2    69.72399763348359        136.58276845567684       5.0                      # Si
234  234  2    79.68424010459577        136.58276845567684       5.0                      # Si
235  235  2    84.66436134015188        1.4377133660457675       5.0                      # Si
236  236  2    94.62517892385539        1.4377133660457675       5.0                      # Si
237  237  2    104.5854213949676        1.4377133660457675       5.0                      # Si
238  238  2    114.54623892133756       1.4377133660457675       5.0                      # Si
239  239  2    124.5064814497833        1.4377133660457675       5.0                      # Si
240  240  2    134.46729897615327       1.4377133660457675       5.0                      # Si
241  241  2    144.42754144726547       1.4377133660457675       5.0                      # Si
242  242  2    154.38835903096899       1.4377133660457675       5.0                      # Si
243  243  2    4.9801212355560995       1.4377133660457675       5.0                      # Si
244  244  2    14.940938819259609       1.4377133660457675       5.0                      # Si
245  245  2    24.90118129037181        1.4377133660457675       5.0                      # Si
246  246  2    34.861998816741796       1.4377133660457675       5.0                      # Si
247  247  2    44.82224128785399        1.4377133660457675       5.0                      # Si
248  248  2    54.78305887155749        1.4377133660457675       5.0                      # Si
249  249  2    64.7433013426697         1.4377133660457675       5.0                      # Si
250  250  2    74.70411886903968        1.4377133660457675       5.0                      # Si
251  251  2    84.66436134015188        7.188566772895313        5.0                      # Si
252  252  2    94.62517892385539        7.188566772895313        5.0                      # Si
253  253  2    104.5854213949676        7.188566772895313        5.0                      # Si
254  254  2    114.54623892133756       7.188566772895313        5.0                      # Si
255  255  2    124.5064814497833        7.188566772895313        5.0                      # Si
256  256  2    134.46729897615327       7.188566772895313        5.0                      # Si
257  257  2    144.42754144726547       7.188566772895313        5.0                      # Si
258  258  2    154.38835903096899       7.188566772895313        5.0                      # Si
259  259  2    4.9801212355560995       7.188566772895313        5.0                      # Si
260  260  2    14.940938819259609       7.188566772895313        5.0                      # Si
261  261  2    24.90118129037181        7.188566772895313        5.0                      # Si
262  262  2    34.861998816741796       7.188566772895313        5.0                      # Si
263  263  2    44.82224128785399        7.188566772895313        5.0                      # Si
264  264  2    54.78305887155749        7.188566772895313        5.0                      # Si
265  265  2    64.7433013426697         7.188566772895313        5.0                      # Si
266  266  2    74.70411886903968        7.188566772895313        5.0                      # Si
267  267  2    79.68424010459577        10.063993447653322       5.0                      # Si
268  268  2    89.64505768829929        10.063993447653322       5.0                      # Si
269  269  2    99.60530015941148        10.063993447653322       5.0                      # Si
270  270  2    109.56611768578146       10.063993447653322       5.0                      # Si
271  271  2    119.52636015689367       10.063993447653322       5.0                      # Si
272  272  2    129.4871777405972        10.063993447653322       5.0                      # Si
273  273  2    139.44742021170936       10.063993447653322       5.0                      # Si
274  274  2    149.4082377954129        10.063993447653322       5.0                      # Si
275  275  2    159.36848026652507       10.063993447653322       5.0                      # Si
276  276  2    9.960817526369983        10.063993447653322       5.0                      # Si
277  277  2    19.921060054815705       10.063993447653322       5.0                      # Si
278  278  2    29.88187758118569        10.063993447653322       5.0                      # Si
279  279  2    39.842120052297886       10.063993447653322       5.0                      # Si
280  280  2    49.8029376360014         10.063993447653322       5.0                      # Si
281  281  2    59.7631801071136         10.063993447653322       5.0                      # Si
282  282  2    69.72399763348359        10.063993447653322       5.0                      # Si
283  283  2    89.64505768829929        15.814846854502868       5.0                      # Si
284  284  2    99.60530015941148        15.814846854502868       5.0                      # Si
285  285  2    109.56611768578146       15.814846854502868       5.0                      # Si
286  286  2    119.52636015689367       15.814846854502868       5.0                      # Si
287  287  2    129.4871777405972        15.814846854502868       5.0                      # Si
288  288  2    139.44742021170936       15.814846854502868       5.0                      # Si
289  289  2    149.4082377954129        15.814846854502868       5.0                      # Si
290  290  2    159.36848026652507       15.814846854502868       5.0                      # Si
291  291  2    9.960817526369983        15.814846854502868       5.0                      # Si
292  292  2    19.921060054815705       15.814846854502868       5.0                      # Si
293  293  2    29.88187758118569        15.814846854502868       5.0                      # Si
294  294  2    39.842120052297886       15.814846854502868       5.0                      # Si
295  295  2    49.8029376360014         15.814846854502868       5.0                      # Si
296  296  2    59.7631801071136         15.814846854502868       5.0                      # Si
297  297  2    69.72399763348359        15.814846854502868       5.0                      # Si
298  298  2    79.68424010459577        15.814846854502868       5.0                      # Si
299  299  2    84.66436134015188        18.6902735865944         5.0                      # Si
300  300  2    94.62517892385539        18.6902735865944         5.0                      # Si
301  301  2    104.5854213949676        18.6902735865944         5.0                      # Si
302  302  2    114.54623892133756       18.6902735865944         5.0                      # Si
303  303  2    124.5064814497833        18.6902735865944         5.0                      # Si
304  304  2    134.46729897615327       18.6902735865944         5.0                      # Si
305  305  2    144.42754144726547       18.6902735865944         5.0                      # Si
306  306  2    154.38835903096899       18.6902735865944         5.0                      # Si
307  307  2    4.9801212355560995       18.6902735865944         5.0                      # Si
308  308  2    14.940938819259609       18.6902735865944         5.0                      # Si
309  309  2    24.90118129037181        18.6902735865944         5.0                      # Si
310  310  2    34.861998816741796       18.6902735865944         5.0                      # Si
311  311  2    44.82224128785399        18.6902735865944         5.0                      # Si