DATA FILE Produced from netmc results (cf David Morley)
3000 atoms
10000 bonds
0 angles
0 dihedrals
0 impropers
2 atom types
0 bond types
2 bond types
0 angle types
0 dihedral types
0 improper types
0.00000 159.36855502944195 xlo xhi
0.00000 138.0204818217226 ylo yhi
0.0000 200.0000 zlo zhi

# Pair Coeffs
#
# 1  O
# 2  Si

# Bond Coeffs
# 
# 1  O-O
# 2  Si-O
# 3  O-O rep
# 4  Si-Si rep

 Masses

1 28.10000 # O 
2 32.01000 # Si

 Atoms # molecular

1    1    1    94.62517892385539        76.19880765508985        8.040569334518267        # O
2    2    1    104.5854213949676        76.19880765508985        8.040569334518267        # O
3    3    1    114.54623892133756       76.19880765508985        8.040569334518267        # O
4    4    1    124.5064814497833        76.19880765508985        8.040569334518267        # O
5    5    1    134.46729897615327       76.19880765508985        8.040569334518267        # O
6    6    1    144.42754144726547       76.19880765508985        8.040569334518267        # O
7    7    1    154.38835903096899       76.19880765508985        8.040569334518267        # O
8    8    1    4.9801212355560995       76.19880765508985        8.040569334518267        # O
9    9    1    14.940938819259609       76.19880765508985        8.040569334518267        # O
10   10   1    24.90118129037181        76.19880765508985        8.040569334518267        # O
11   11   1    34.861998816741796       76.19880765508985        8.040569334518267        # O
12   12   1    44.82224128785399        76.19880765508985        8.040569334518267        # O
13   13   1    54.78305887155749        76.19880765508985        8.040569334518267        # O
14   14   1    64.7433013426697         76.19880765508985        8.040569334518267        # O
15   15   1    99.60530015941148        79.07423438718139        8.040569334518267        # O
16   16   1    109.56611768578146       79.07423438718139        8.040569334518267        # O
17   17   1    119.52636015689367       79.07423438718139        8.040569334518267        # O
18   18   1    129.4871777405972        79.07423438718139        8.040569334518267        # O
19   19   1    139.44742021170936       79.07423438718139        8.040569334518267        # O
20   20   1    149.4082377954129        79.07423438718139        8.040569334518267        # O
21   21   1    159.36848026652507       79.07423438718139        8.040569334518267        # O
22   22   1    9.960817526369983        79.07423438718139        8.040569334518267        # O
23   23   1    19.921060054815705       79.07423438718139        8.040569334518267        # O
24   24   1    29.88187758118569        79.07423438718139        8.040569334518267        # O
25   25   1    39.842120052297886       79.07423438718139        8.040569334518267        # O
26   26   1    49.8029376360014         79.07423438718139        8.040569334518267        # O
27   27   1    59.7631801071136         79.07423438718139        8.040569334518267        # O
28   28   1    89.64505768829929        84.82508779403094        8.040569334518267        # O
29   29   1    99.60530015941148        84.82508779403094        8.040569334518267        # O
30   30   1    109.56611768578146       84.82508779403094        8.040569334518267        # O
31   31   1    119.52636015689367       84.82508779403094        8.040569334518267        # O
32   32   1    129.4871777405972        84.82508779403094        8.040569334518267        # O
33   33   1    139.44742021170936       84.82508779403094        8.040569334518267        # O
34   34   1    149.4082377954129        84.82508779403094        8.040569334518267        # O
35   35   1    159.36848026652507       84.82508779403094        8.040569334518267        # O
36   36   1    9.960817526369983        84.82508779403094        8.040569334518267        # O
37   37   1    19.921060054815705       84.82508779403094        8.040569334518267        # O
38   38   1    29.88187758118569        84.82508779403094        8.040569334518267        # O
39   39   1    39.842120052297886       84.82508779403094        8.040569334518267        # O
40   40   1    49.8029376360014         84.82508779403094        8.040569334518267        # O
41   41   1    59.7631801071136         84.82508779403094        8.040569334518267        # O
42   42   1    69.72399763348359        84.82508779403094        8.040569334518267        # O
43   43   1    84.66436134015188        87.70051452612246        8.040569334518267        # O
44   44   1    94.62517892385539        87.70051452612246        8.040569334518267        # O
45   45   1    104.5854213949676        87.70051452612246        8.040569334518267        # O
46   46   1    114.54623892133756       87.70051452612246        8.040569334518267        # O
47   47   1    124.5064814497833        87.70051452612246        8.040569334518267        # O
48   48   1    134.46729897615327       87.70051452612246        8.040569334518267        # O
49   49   1    144.42754144726547       87.70051452612246        8.040569334518267        # O
50   50   1    154.38835903096899       87.70051452612246        8.040569334518267        # O
51   51   1    4.9801212355560995       87.70051452612246        8.040569334518267        # O
52   52   1    14.940938819259609       87.70051452612246        8.040569334518267        # O
53   53   1    24.90118129037181        87.70051452612246        8.040569334518267        # O
54   54   1    34.861998816741796       87.70051452612246        8.040569334518267        # O
55   55   1    44.82224128785399        87.70051452612246        8.040569334518267        # O
56   56   1    54.78305887155749        87.70051452612246        8.040569334518267        # O
57   57   1    64.7433013426697         87.70051452612246        8.040569334518267        # O
58   58   1    74.70411886903968        87.70051452612246        8.040569334518267        # O
59   59   1    84.66436134015188        93.45136793297202        8.040569334518267        # O
60   60   1    94.62517892385539        93.45136793297202        8.040569334518267        # O
61   61   1    104.5854213949676        93.45136793297202        8.040569334518267        # O
62   62   1    114.54623892133756       93.45136793297202        8.040569334518267        # O
63   63   1    124.5064814497833        93.45136793297202        8.040569334518267        # O
64   64   1    134.46729897615327       93.45136793297202        8.040569334518267        # O
65   65   1    144.42754144726547       93.45136793297202        8.040569334518267        # O
66   66   1    154.38835903096899       93.45136793297202        8.040569334518267        # O
67   67   1    4.9801212355560995       93.45136793297202        8.040569334518267        # O
68   68   1    14.940938819259609       93.45136793297202        8.040569334518267        # O
69   69   1    24.90118129037181        93.45136793297202        8.040569334518267        # O
70   70   1    34.861998816741796       93.45136793297202        8.040569334518267        # O
71   71   1    44.82224128785399        93.45136793297202        8.040569334518267        # O
72   72   1    54.78305887155749        93.45136793297202        8.040569334518267        # O
73   73   1    64.7433013426697         93.45136793297202        8.040569334518267        # O
74   74   1    74.70411886903968        93.45136793297202        8.040569334518267        # O
75   75   1    79.68424010459577        96.32679460773002        8.040569334518267        # O
76   76   1    89.64505768829929        96.32679460773002        8.040569334518267        # O
77   77   1    99.60530015941148        96.32679460773002        8.040569334518267        # O
78   78   1    109.56611768578146       96.32679460773002        8.040569334518267        # O
79   79   1    119.52636015689367       96.32679460773002        8.040569334518267        # O
80   80   1    129.4871777405972        96.32679460773002        8.040569334518267        # O
81   81   1    139.44742021170936       96.32679460773002        8.040569334518267        # O
82   82   1    149.4082377954129        96.32679460773002        8.040569334518267        # O
83   83   1    159.36848026652507       96.32679460773002        8.040569334518267        # O
84   84   1    9.960817526369983        96.32679460773002        8.040569334518267        # O
85   85   1    19.921060054815705       96.32679460773002        8.040569334518267        # O
86   86   1    29.88187758118569        96.32679460773002        8.040569334518267        # O
87   87   1    39.842120052297886       96.32679460773002        8.040569334518267        # O
88   88   1    49.8029376360014         96.32679460773002        8.040569334518267        # O
89   89   1    59.7631801071136         96.32679460773002        8.040569334518267        # O
90   90   1    69.72399763348359        96.32679460773002        8.040569334518267        # O
91   91   1    89.64505768829929        102.07764801457957       8.040569334518267        # O
92   92   1    99.60530015941148        102.07764801457957       8.040569334518267        # O
93   93   1    109.56611768578146       102.07764801457957       8.040569334518267        # O
94   94   1    119.52636015689367       102.07764801457957       8.040569334518267        # O
95   95   1    129.4871777405972        102.07764801457957       8.040569334518267        # O
96   96   1    139.44742021170936       102.07764801457957       8.040569334518267        # O
97   97   1    149.4082377954129        102.07764801457957       8.040569334518267        # O
98   98   1    159.36848026652507       102.07764801457957       8.040569334518267        # O
99   99   1    9.960817526369983        102.07764801457957       8.040569334518267        # O
100  100  1    19.921060054815705       102.07764801457957       8.040569334518267        # O
101  101  1    29.88187758118569        102.07764801457957       8.040569334518267        # O
102  102  1    39.842120052297886       102.07764801457957       8.040569334518267        # O
103  103  1    49.8029376360014         102.07764801457957       8.040569334518267        # O
104  104  1    59.7631801071136         102.07764801457957       8.040569334518267        # O
105  105  1    69.72399763348359        102.07764801457957       8.040569334518267        # O
106  106  1    79.68424010459577        102.07764801457957       8.040569334518267        # O
107  107  1    84.66436134015188        104.9530747466711        8.040569334518267        # O
108  108  1    94.62517892385539        104.9530747466711        8.040569334518267        # O
109  109  1    104.5854213949676        104.9530747466711        8.040569334518267        # O
110  110  1    114.54623892133756       104.9530747466711        8.040569334518267        # O
111  111  1    124.5064814497833        104.9530747466711        8.040569334518267        # O
112  112  1    134.46729897615327       104.9530747466711        8.040569334518267        # O
113  113  1    144.42754144726547       104.9530747466711        8.040569334518267        # O
114  114  1    154.38835903096899       104.9530747466711        8.040569334518267        # O
115  115  1    4.9801212355560995       104.9530747466711        8.040569334518267        # O
116  116  1    14.940938819259609       104.9530747466711        8.040569334518267        # O
117  117  1    24.90118129037181        104.9530747466711        8.040569334518267        # O
118  118  1    34.861998816741796       104.9530747466711        8.040569334518267        # O
119  119  1    44.82224128785399        104.9530747466711        8.040569334518267        # O
120  120  1    54.78305887155749        104.9530747466711        8.040569334518267        # O
121  121  1    64.7433013426697         104.9530747466711        8.040569334518267        # O
122  122  1    74.70411886903968        104.9530747466711        8.040569334518267        # O
123  123  1    84.66436134015188        110.70392815352065       8.040569334518267        # O
124  124  1    94.62517892385539        110.70392815352065       8.040569334518267        # O
125  125  1    104.5854213949676        110.70392815352065       8.040569334518267        # O
126  126  1    114.54623892133756       110.70392815352065       8.040569334518267        # O
127  127  1    124.5064814497833        110.70392815352065       8.040569334518267        # O
128  128  1    134.46729897615327       110.70392815352065       8.040569334518267        # O
129  129  1    144.42754144726547       110.70392815352065       8.040569334518267        # O
130  130  1    154.38835903096899       110.70392815352065       8.040569334518267        # O
131  131  1    4.9801212355560995       110.70392815352065       8.040569334518267        # O
132  132  1    14.940938819259609       110.70392815352065       8.040569334518267        # O
133  133  1    24.90118129037181        110.70392815352065       8.040569334518267        # O
134  134  1    34.861998816741796       110.70392815352065       8.040569334518267        # O
135  135  1    44.82224128785399        110.70392815352065       8.040569334518267        # O
136  136  1    54.78305887155749        110.70392815352065       8.040569334518267        # O
137  137  1    64.7433013426697         110.70392815352065       8.040569334518267        # O
138  138  1    74.70411886903968        110.70392815352065       8.040569334518267        # O
139  139  1    79.68424010459577        113.57935482827865       8.040569334518267        # O
140  140  1    89.64505768829929        113.57935482827865       8.040569334518267        # O
141  141  1    99.60530015941148        113.57935482827865       8.040569334518267        # O
142  142  1    109.56611768578146       113.57935482827865       8.040569334518267        # O
143  143  1    119.52636015689367       113.57935482827865       8.040569334518267        # O
144  144  1    129.4871777405972        113.57935482827865       8.040569334518267        # O
145  145  1    139.44742021170936       113.57935482827865       8.040569334518267        # O
146  146  1    149.4082377954129        113.57935482827865       8.040569334518267        # O
147  147  1    159.36848026652507       113.57935482827865       8.040569334518267        # O
148  148  1    9.960817526369983        113.57935482827865       8.040569334518267        # O
149  149  1    19.921060054815705       113.57935482827865       8.040569334518267        # O
150  150  1    29.88187758118569        113.57935482827865       8.040569334518267        # O
151  151  1    39.842120052297886       113.57935482827865       8.040569334518267        # O
152  152  1    49.8029376360014         113.57935482827865       8.040569334518267        # O
153  153  1    59.7631801071136         113.57935482827865       8.040569334518267        # O
154  154  1    69.72399763348359        113.57935482827865       8.040569334518267        # O
155  155  1    89.64505768829929        119.3302082351282        8.040569334518267        # O
156  156  1    99.60530015941148        119.3302082351282        8.040569334518267        # O
157  157  1    109.56611768578146       119.3302082351282        8.040569334518267        # O
158  158  1    119.52636015689367       119.3302082351282        8.040569334518267        # O
159  159  1    129.4871777405972        119.3302082351282        8.040569334518267        # O
160  160  1    139.44742021170936       119.3302082351282        8.040569334518267        # O
161  161  1    149.4082377954129        119.3302082351282        8.040569334518267        # O
162  162  1    159.36848026652507       119.3302082351282        8.040569334518267        # O
163  163  1    9.960817526369983        119.3302082351282        8.040569334518267        # O
164  164  1    19.921060054815705       119.3302082351282        8.040569334518267        # O
165  165  1    29.88187758118569        119.3302082351282        8.040569334518267        # O
166  166  1    39.842120052297886       119.3302082351282        8.040569334518267        # O
167  167  1    49.8029376360014         119.3302082351282        8.040569334518267        # O
168  168  1    59.7631801071136         119.3302082351282        8.040569334518267        # O
169  169  1    69.72399763348359        119.3302082351282        8.040569334518267        # O
170  170  1    79.68424010459577        119.3302082351282        8.040569334518267        # O
171  171  1    84.66436134015188        122.20563496721974       8.040569334518267        # O
172  172  1    94.62517892385539        122.20563496721974       8.040569334518267        # O
173  173  1    104.5854213949676        122.20563496721974       8.040569334518267        # O
174  174  1    114.54623892133756       122.20563496721974       8.040569334518267        # O
175  175  1    124.5064814497833        122.20563496721974       8.040569334518267        # O
176  176  1    134.46729897615327       122.20563496721974       8.040569334518267        # O
177  177  1    144.42754144726547       122.20563496721974       8.040569334518267        # O
178  178  1    154.38835903096899       122.20563496721974       8.040569334518267        # O
179  179  1    4.9801212355560995       122.20563496721974       8.040569334518267        # O
180  180  1    14.940938819259609       122.20563496721974       8.040569334518267        # O
181  181  1    24.90118129037181        122.20563496721974       8.040569334518267        # O
182  182  1    34.861998816741796       122.20563496721974       8.040569334518267        # O
183  183  1    44.82224128785399        122.20563496721974       8.040569334518267        # O
184  184  1    54.78305887155749        122.20563496721974       8.040569334518267        # O
185  185  1    64.7433013426697         122.20563496721974       8.040569334518267        # O
186  186  1    74.70411886903968        122.20563496721974       8.040569334518267        # O
187  187  1    84.66436134015188        127.95648837406928       8.040569334518267        # O
188  188  1    94.62517892385539        127.95648837406928       8.040569334518267        # O
189  189  1    104.5854213949676        127.95648837406928       8.040569334518267        # O
190  190  1    114.54623892133756       127.95648837406928       8.040569334518267        # O
191  191  1    124.5064814497833        127.95648837406928       8.040569334518267        # O
192  192  1    134.46729897615327       127.95648837406928       8.040569334518267        # O
193  193  1    144.42754144726547       127.95648837406928       8.040569334518267        # O
194  194  1    154.38835903096899       127.95648837406928       8.040569334518267        # O
195  195  1    4.9801212355560995       127.95648837406928       8.040569334518267        # O
196  196  1    14.940938819259609       127.95648837406928       8.040569334518267        # O
197  197  1    24.90118129037181        127.95648837406928       8.040569334518267        # O
198  198  1    34.861998816741796       127.95648837406928       8.040569334518267        # O
199  199  1    44.82224128785399        127.95648837406928       8.040569334518267        # O
200  200  1    54.78305887155749        127.95648837406928       8.040569334518267        # O
201  201  1    64.7433013426697         127.95648837406928       8.040569334518267        # O
202  202  1    74.70411886903968        127.95648837406928       8.040569334518267        # O
203  203  1    79.68424010459577        130.83191504882728       8.040569334518267        # O
204  204  1    89.64505768829929        130.83191504882728       8.040569334518267        # O
205  205  1    99.60530015941148        130.83191504882728       8.040569334518267        # O
206  206  1    109.56611768578146       130.83191504882728       8.040569334518267        # O
207  207  1    119.52636015689367       130.83191504882728       8.040569334518267        # O
208  208  1    129.4871777405972        130.83191504882728       8.040569334518267        # O
209  209  1    139.44742021170936       130.83191504882728       8.040569334518267        # O
210  210  1    149.4082377954129        130.83191504882728       8.040569334518267        # O
211  211  1    159.36848026652507       130.83191504882728       8.040569334518267        # O
212  212  1    9.960817526369983        130.83191504882728       8.040569334518267        # O
213  213  1    19.921060054815705       130.83191504882728       8.040569334518267        # O
214  214  1    29.88187758118569        130.83191504882728       8.040569334518267        # O
215  215  1    39.842120052297886       130.83191504882728       8.040569334518267        # O
216  216  1    49.8029376360014         130.83191504882728       8.040569334518267        # O
217  217  1    59.7631801071136         130.83191504882728       8.040569334518267        # O
218  218  1    69.72399763348359        130.83191504882728       8.040569334518267        # O
219  219  1    89.64505768829929        136.58276845567684       8.040569334518267        # O
220  220  1    99.60530015941148        136.58276845567684       8.040569334518267        # O
221  221  1    109.56611768578146       136.58276845567684       8.040569334518267        # O
222  222  1    119.52636015689367       136.58276845567684       8.040569334518267        # O
223  223  1    129.4871777405972        136.58276845567684       8.040569334518267        # O
224  224  1    139.44742021170936       136.58276845567684       8.040569334518267        # O
225  225  1    149.4082377954129        136.58276845567684       8.040569334518267        # O
226  226  1    159.36848026652507       136.58276845567684       8.040569334518267        # O
227  227  1    9.960817526369983        136.58276845567684       8.040569334518267        # O
228  228  1    19.921060054815705       136.58276845567684       8.040569334518267        # O
229  229  1    29.88187758118569        136.58276845567684       8.040569334518267        # O
230  230  1    39.842120052297886       136.58276845567684       8.040569334518267        # O
231  231  1    49.8029376360014         136.58276845567684       8.040569334518267        # O
232  232  1    59.7631801071136         136.58276845567684       8.040569334518267        # O
233  233  1    69.72399763348359        136.58276845567684       8.040569334518267        # O
234  234  1    79.68424010459577        136.58276845567684       8.040569334518267        # O
235  235  1    84.66436134015188        1.4377133660457675       8.040569334518267        # O
236  236  1    94.62517892385539        1.4377133660457675       8.040569334518267        # O
237  237  1    104.5854213949676        1.4377133660457675       8.040569334518267        # O
238  238  1    114.54623892133756       1.4377133660457675       8.040569334518267        # O
239  239  1    124.5064814497833        1.4377133660457675       8.040569334518267        # O
240  240  1    134.46729897615327       1.4377133660457675       8.040569334518267        # O
241  241  1    144.42754144726547       1.4377133660457675       8.040569334518267        # O
242  242  1    154.38835903096899       1.4377133660457675       8.040569334518267        # O
243  243  1    4.9801212355560995       1.4377133660457675       8.040569334518267        # O
244  244  1    14.940938819259609       1.4377133660457675       8.040569334518267        # O
245  245  1    24.90118129037181        1.4377133660457675       8.040569334518267        # O
246  246  1    34.861998816741796       1.4377133660457675       8.040569334518267        # O
247  247  1    44.82224128785399        1.4377133660457675       8.040569334518267        # O
248  248  1    54.78305887155749        1.4377133660457675       8.040569334518267        # O
249  249  1    64.7433013426697         1.4377133660457675       8.040569334518267        # O
250  250  1    74.70411886903968        1.4377133660457675       8.040569334518267        # O
251  251  1    84.66436134015188        7.188566772895313        8.040569334518267        # O
252  252  1    94.62517892385539        7.188566772895313        8.040569334518267        # O
253  253  1    104.5854213949676        7.188566772895313        8.040569334518267        # O
254  254  1    114.54623892133756       7.188566772895313        8.040569334518267        # O
255  255  1    124.5064814497833        7.188566772895313        8.040569334518267        # O
256  256  1    134.46729897615327       7.188566772895313        8.040569334518267        # O
257  257  1    144.42754144726547       7.188566772895313        8.040569334518267        # O
258  258  1    154.38835903096899       7.188566772895313        8.040569334518267        # O
259  259  1    4.9801212355560995       7.188566772895313        8.040569334518267        # O
260  260  1    14.940938819259609       7.188566772895313        8.040569334518267        # O
261  261  1    24.90118129037181        7.188566772895313        8.040569334518267        # O
262  262  1    34.861998816741796       7.188566772895313        8.040569334518267        # O
263  263  1    44.82224128785399        7.188566772895313        8.040569334518267        # O
264  264  1    54.78305887155749        7.188566772895313        8.040569334518267        # O
265  265  1    64.7433013426697         7.188566772895313        8.040569334518267        # O
266  266  1    74.70411886903968        7.188566772895313        8.040569334518267        # O
267  267  1    79.68424010459577        10.063993447653322       8.040569334518267        # O
268  268  1    89.64505768829929        10.063993447653322       8.040569334518267        # O
269  269  1    99.60530015941148        10.063993447653322       8.040569334518267        # O
270  270  1    109.56611768578146       10.063993447653322       8.040569334518267        # O
271  271  1    119.52636015689367       10.063993447653322       8.040569334518267        # O
272  272  1    129.4871777405972        10.063993447653322       8.040569334518267        # O
273  273  1    139.44742021170936       10.063993447653322       8.040569334518267        # O
274  274  1    149.4082377954129        10.063993447653322       8.040569334518267        # O
275  275  1    159.36848026652507       10.063993447653322       8.040569334518267        # O
276  276  1    9.960817526369983        10.063993447653322       8.040569334518267        # O
277  277  1    19.921060054815705       10.063993447653322       8.040569334518267        # O
278  278  1    29.88187758118569        10.063993447653322       8.040569334518267        # O
279  279  1    39.842120052297886       10.063993447653322       8.040569334518267        # O
280  280  1    49.8029376360014         10.063993447653322       8.040569334518267        # O
281  281  1    59.7631801071136         10.063993447653322       8.040569334518267        # O
282  282  1    69.72399763348359        10.063993447653322       8.040569334518267        # O
283  283  1    89.64505768829929        15.814846854502868       8.040569334518267        # O
284  284  1    99.60530015941148        15.814846854502868       8.040569334518267        # O
285  285  1    109.56611768578146       15.814846854502868       8.040569334518267        # O
286  286  1    119.52636015689367       15.814846854502868       8.040569334518267        # O
287  287  1    129.4871777405972        15.814846854502868       8.040569334518267        # O
288  288  1    139.44742021170936       15.814846854502868       8.040569334518267        # O
289  289  1    149.4082377954129        15.814846854502868       8.040569334518267        # O
290  290  1    159.36848026652507       15.814846854502868       8.040569334518267        # O
291  291  1    9.960817526369983        15.814846854502868       8.040569334518267        # O
292  292  1    19.921060054815705       15.814846854502868       8.040569334518267        # O
293  293  1    29.88187758118569        15.814846854502868       8.040569334518267        # O
294  294  1    39.842120052297886       15.814846854502868       8.040569334518267        # O
295  295  1    49.8029376360014         15.814846854502868       8.040569334518267        # O
296  296  1    59.7631801071136         15.814846854502868       8.040569334518267        # O
297  297  1    69.72399763348359        15.814846854502868       8.040569334518267        # O
298  298  1    79.68424010459577        15.814846854502868       8.040569334518267        # O
299  299  1    84.66436134015188        18.6902735865944         8.040569334518267        # O
300  300  1    94.62517892385539        18.6902735865944         8.040569334518267        # O
301  301  1    104.5854213949676        18.6902735865944         8.040569334518267        # O
302  302  1    114.54623892133756       18.6902735865944         8.040569334518267        # O
303  303  1    124.5064814497833        18.6902735865944         8.040569334518267        # O
304  304  1    134.46729897615327       18.6902735865944         8.040569334518267        # O
305  305  1    144.42754144726547       18.6902735865944         8.040569334518267        # O
306  306  1    154.38835903096899       18.6902735865944         8.040569334518267        # O
307  307  1    4.9801212355560995       18.6902735865944         8.040569334518267        # O
308  308  1    14.940938819259609       18.6902735865944         8.040569334518267        # O
309  309  1    24.90118129037181        18.6902735865944         8.040569334518267        # O
310  310  1    34.861998816741796       18.6902735865944         8.040569334518267        # O
311  311  1    44.82224128785399        18.6902735865944         8.040569334518267        # O
312  312  1    54.78305887155749        18.6902735865944         8.040569334518267        # O
313  313  1    64.7433013426697         18.6902735865944         8.040569334518267        # O
314  314  1    74.70411886903968        18.6902735865944         8.040569334518267        # O