DATA FILE Produced from netmc results (cf David Morley)
1195 atoms
2868 bonds
0 angles
0 dihedrals
0 impropers
2 atom types
2 bond types
0 angle types
0 dihedral types
0 improper types
0.00000 161.2416664099021 xlo xhi
0.00000 140.28769892374376 ylo yhi

# Pair Coeffs
#
# 1  O
# 2  Si

# Bond Coeffs
# 
# 1  O-O
# 2  Si-O
# 3  O-O rep
# 4  Si-Si rep

 Masses

1 28.10000 # O 
2 32.01000 # Si

 Atoms # molecular

1    1    2    105.81464850597042       77.45050044927521        5.0                      # Si
2    2    2    115.89253879746357       77.45050044927521        5.0                      # Si
3    3    2    125.96984732567645       77.45050044927521        5.0                      # Si
4    4    2    136.0477376745031        77.45050044927521        5.0                      # Si
5    5    2    146.12504620271602       77.45050044927521        5.0                      # Si
6    6    2    156.20293649420915       77.45050044927521        5.0                      # Si
7    7    2    5.0386542354396875       77.45050044927521        5.0                      # Si
8    8    2    15.116544584266347       77.45050044927521        5.0                      # Si
9    9    2    25.193853112479246       77.45050044927521        5.0                      # Si
10   10   2    35.2717434613059         77.45050044927521        5.0                      # Si
11   11   2    45.34905193218528        77.45050044927521        5.0                      # Si
12   12   2    55.42694228101194        77.45050044927521        5.0                      # Si
13   13   2    65.50425080922484        77.45050044927521        5.0                      # Si
14   14   2    110.85388456202388       80.37316083276984        5.0                      # Si
15   15   2    120.93119309023676       80.37316083276984        5.0                      # Si
16   16   2    131.00908343906343       80.37316083276984        5.0                      # Si
17   17   2    141.0863919099428        80.37316083276984        5.0                      # Si
18   18   2    151.16428225876945       80.37316083276984        5.0                      # Si
19   19   2    161.24159078698236       80.37316083276984        5.0                      # Si
20   20   2    10.077890348826658       80.37316083276984        5.0                      # Si
21   21   2    20.155198819706033       80.37316083276984        5.0                      # Si
22   22   2    30.233089168532693       80.37316083276984        5.0                      # Si
23   23   2    40.31039769674559        80.37316083276984        5.0                      # Si
24   24   2    50.38828804557225        80.37316083276984        5.0                      # Si
25   25   2    60.46559651645162        80.37316083276984        5.0                      # Si
26   26   2    110.85388456202388       86.21848165709262        5.0                      # Si
27   27   2    120.93119309023676       86.21848165709262        5.0                      # Si
28   28   2    131.00908343906343       86.21848165709262        5.0                      # Si
29   29   2    141.0863919099428        86.21848165709262        5.0                      # Si
30   30   2    151.16428225876945       86.21848165709262        5.0                      # Si
31   31   2    161.24159078698236       86.21848165709262        5.0                      # Si
32   32   2    10.077890348826658       86.21848165709262        5.0                      # Si
33   33   2    20.155198819706033       86.21848165709262        5.0                      # Si
34   34   2    30.233089168532693       86.21848165709262        5.0                      # Si
35   35   2    40.31039769674559        86.21848165709262        5.0                      # Si
36   36   2    50.38828804557225        86.21848165709262        5.0                      # Si
37   37   2    60.46559651645162        86.21848165709262        5.0                      # Si
38   38   2    105.81464850597042       89.14114204058724        5.0                      # Si
39   39   2    115.89253879746357       89.14114204058724        5.0                      # Si
40   40   2    125.96984732567645       89.14114204058724        5.0                      # Si
41   41   2    136.0477376745031        89.14114204058724        5.0                      # Si
42   42   2    146.12504620271602       89.14114204058724        5.0                      # Si
43   43   2    156.20293649420915       89.14114204058724        5.0                      # Si
44   44   2    5.0386542354396875       89.14114204058724        5.0                      # Si
45   45   2    15.116544584266347       89.14114204058724        5.0                      # Si
46   46   2    25.193853112479246       89.14114204058724        5.0                      # Si
47   47   2    35.2717434613059         89.14114204058724        5.0                      # Si
48   48   2    45.34905193218528        89.14114204058724        5.0                      # Si
49   49   2    55.42694228101194        89.14114204058724        5.0                      # Si
50   50   2    65.50425080922484        89.14114204058724        5.0                      # Si
51   51   2    105.81464850597042       94.9864628075765         5.0                      # Si
52   52   2    115.89253879746357       94.9864628075765         5.0                      # Si
53   53   2    125.96984732567645       94.9864628075765         5.0                      # Si
54   54   2    136.0477376745031        94.9864628075765         5.0                      # Si
55   55   2    146.12504620271602       94.9864628075765         5.0                      # Si
56   56   2    156.20293649420915       94.9864628075765         5.0                      # Si
57   57   2    5.0386542354396875       94.9864628075765         5.0                      # Si
58   58   2    15.116544584266347       94.9864628075765         5.0                      # Si
59   59   2    25.193853112479246       94.9864628075765         5.0                      # Si
60   60   2    35.2717434613059         94.9864628075765         5.0                      # Si
61   61   2    45.34905193218528        94.9864628075765         5.0                      # Si
62   62   2    55.42694228101194        94.9864628075765         5.0                      # Si
63   63   2    65.50425080922484        94.9864628075765         5.0                      # Si
64   64   2    80.62079539349118        97.90912319107113        5.0                      # Si
65   65   2    90.69868574231783        97.90912319107113        5.0                      # Si
66   66   2    100.77599421319721       97.90912319107113        5.0                      # Si
67   67   2    110.85388456202388       97.90912319107113        5.0                      # Si
68   68   2    120.93119309023676       97.90912319107113        5.0                      # Si
69   69   2    131.00908343906343       97.90912319107113        5.0                      # Si
70   70   2    141.0863919099428        97.90912319107113        5.0                      # Si
71   71   2    151.16428225876945       97.90912319107113        5.0                      # Si
72   72   2    161.24159078698236       97.90912319107113        5.0                      # Si
73   73   2    10.077890348826658       97.90912319107113        5.0                      # Si
74   74   2    20.155198819706033       97.90912319107113        5.0                      # Si
75   75   2    30.233089168532693       97.90912319107113        5.0                      # Si
76   76   2    40.31039769674559        97.90912319107113        5.0                      # Si
77   77   2    50.38828804557225        97.90912319107113        5.0                      # Si
78   78   2    60.46559651645162        97.90912319107113        5.0                      # Si
79   79   2    70.54348686527828        97.90912319107113        5.0                      # Si
80   80   2    90.69868574231783        103.75444401539389       5.0                      # Si
81   81   2    100.77599421319721       103.75444401539389       5.0                      # Si
82   82   2    110.85388456202388       103.75444401539389       5.0                      # Si
83   83   2    120.93119309023676       103.75444401539389       5.0                      # Si
84   84   2    131.00908343906343       103.75444401539389       5.0                      # Si
85   85   2    141.0863919099428        103.75444401539389       5.0                      # Si
86   86   2    151.16428225876945       103.75444401539389       5.0                      # Si
87   87   2    161.24159078698236       103.75444401539389       5.0                      # Si
88   88   2    10.077890348826658       103.75444401539389       5.0                      # Si
89   89   2    20.155198819706033       103.75444401539389       5.0                      # Si
90   90   2    30.233089168532693       103.75444401539389       5.0                      # Si
91   91   2    40.31039769674559        103.75444401539389       5.0                      # Si
92   92   2    50.38828804557225        103.75444401539389       5.0                      # Si
93   93   2    60.46559651645162        103.75444401539389       5.0                      # Si
94   94   2    70.54348686527828        103.75444401539389       5.0                      # Si
95   95   2    80.62079539349118        103.75444401539389       5.0                      # Si
96   96   2    85.65944962893087        106.67710439888852       5.0                      # Si
97   97   2    95.73733997775753        106.67710439888852       5.0                      # Si
98   98   2    105.81464850597042       106.67710439888852       5.0                      # Si
99   99   2    115.89253879746357       106.67710439888852       5.0                      # Si
100  100  2    125.96984732567645       106.67710439888852       5.0                      # Si
101  101  2    136.0477376745031        106.67710439888852       5.0                      # Si
102  102  2    146.12504620271602       106.67710439888852       5.0                      # Si
103  103  2    156.20293649420915       106.67710439888852       5.0                      # Si
104  104  2    5.0386542354396875       106.67710439888852       5.0                      # Si
105  105  2    15.116544584266347       106.67710439888852       5.0                      # Si
106  106  2    25.193853112479246       106.67710439888852       5.0                      # Si
107  107  2    35.2717434613059         106.67710439888852       5.0                      # Si
108  108  2    45.34905193218528        106.67710439888852       5.0                      # Si
109  109  2    55.42694228101194        106.67710439888852       5.0                      # Si
110  110  2    65.50425080922484        106.67710439888852       5.0                      # Si
111  111  2    75.58214115805148        106.67710439888852       5.0                      # Si
112  112  2    85.65944962893087        112.52242516587778       5.0                      # Si
113  113  2    95.73733997775753        112.52242516587778       5.0                      # Si
114  114  2    105.81464850597042       112.52242516587778       5.0                      # Si
115  115  2    115.89253879746357       112.52242516587778       5.0                      # Si
116  116  2    125.96984732567645       112.52242516587778       5.0                      # Si
117  117  2    136.0477376745031        112.52242516587778       5.0                      # Si
118  118  2    146.12504620271602       112.52242516587778       5.0                      # Si
119  119  2    156.20293649420915       112.52242516587778       5.0                      # Si
120  120  2    5.0386542354396875       112.52242516587778       5.0                      # Si
121  121  2    15.116544584266347       112.52242516587778       5.0                      # Si
122  122  2    25.193853112479246       112.52242516587778       5.0                      # Si
123  123  2    35.2717434613059         112.52242516587778       5.0                      # Si
124  124  2    45.34905193218528        112.52242516587778       5.0                      # Si
125  125  2    55.42694228101194        112.52242516587778       5.0                      # Si
126  126  2    65.50425080922484        112.52242516587778       5.0                      # Si
127  127  2    75.58214115805148        112.52242516587778       5.0                      # Si
128  128  2    80.62079539349118        115.44508560670593       5.0                      # Si
129  129  2    90.69868574231783        115.44508560670593       5.0                      # Si
130  130  2    100.77599421319721       115.44508560670593       5.0                      # Si
131  131  2    110.85388456202388       115.44508560670593       5.0                      # Si
132  132  2    120.93119309023676       115.44508560670593       5.0                      # Si
133  133  2    131.00908343906343       115.44508560670593       5.0                      # Si
134  134  2    141.0863919099428        115.44508560670593       5.0                      # Si
135  135  2    151.16428225876945       115.44508560670593       5.0                      # Si
136  136  2    161.24159078698236       115.44508560670593       5.0                      # Si
137  137  2    10.077890348826658       115.44508560670593       5.0                      # Si
138  138  2    20.155198819706033       115.44508560670593       5.0                      # Si
139  139  2    30.233089168532693       115.44508560670593       5.0                      # Si
140  140  2    40.31039769674559        115.44508560670593       5.0                      # Si
141  141  2    50.38828804557225        115.44508560670593       5.0                      # Si
142  142  2    60.46559651645162        115.44508560670593       5.0                      # Si
143  143  2    70.54348686527828        115.44508560670593       5.0                      # Si
144  144  2    90.69868574231783        121.29040637369518       5.0                      # Si
145  145  2    100.77599421319721       121.29040637369518       5.0                      # Si
146  146  2    110.85388456202388       121.29040637369518       5.0                      # Si
147  147  2    120.93119309023676       121.29040637369518       5.0                      # Si
148  148  2    131.00908343906343       121.29040637369518       5.0                      # Si
149  149  2    141.0863919099428        121.29040637369518       5.0                      # Si
150  150  2    151.16428225876945       121.29040637369518       5.0                      # Si
151  151  2    161.24159078698236       121.29040637369518       5.0                      # Si
152  152  2    10.077890348826658       121.29040637369518       5.0                      # Si
153  153  2    20.155198819706033       121.29040637369518       5.0                      # Si
154  154  2    30.233089168532693       121.29040637369518       5.0                      # Si
155  155  2    40.31039769674559        121.29040637369518       5.0                      # Si
156  156  2    50.38828804557225        121.29040637369518       5.0                      # Si
157  157  2    60.46559651645162        121.29040637369518       5.0                      # Si
158  158  2    70.54348686527828        121.29040637369518       5.0                      # Si
159  159  2    80.62079539349118        121.29040637369518       5.0                      # Si
160  160  2    85.65944962893087        124.21306675718981       5.0                      # Si
161  161  2    95.73733997775753        124.21306675718981       5.0                      # Si
162  162  2    105.81464850597042       124.21306675718981       5.0                      # Si
163  163  2    115.89253879746357       124.21306675718981       5.0                      # Si
164  164  2    125.96984732567645       124.21306675718981       5.0                      # Si
165  165  2    136.0477376745031        124.21306675718981       5.0                      # Si
166  166  2    146.12504620271602       124.21306675718981       5.0                      # Si
167  167  2    156.20293649420915       124.21306675718981       5.0                      # Si
168  168  2    5.0386542354396875       124.21306675718981       5.0                      # Si
169  169  2    15.116544584266347       124.21306675718981       5.0                      # Si
170  170  2    25.193853112479246       124.21306675718981       5.0                      # Si
171  171  2    35.2717434613059         124.21306675718981       5.0                      # Si
172  172  2    45.34905193218528        124.21306675718981       5.0                      # Si
173  173  2    55.42694228101194        124.21306675718981       5.0                      # Si
174  174  2    65.50425080922484        124.21306675718981       5.0                      # Si
175  175  2    75.58214115805148        124.21306675718981       5.0                      # Si
176  176  2    85.65944962893087        130.05838758151256       5.0                      # Si
177  177  2    95.73733997775753        130.05838758151256       5.0                      # Si
178  178  2    105.81464850597042       130.05838758151256       5.0                      # Si
179  179  2    115.89253879746357       130.05838758151256       5.0                      # Si
180  180  2    125.96984732567645       130.05838758151256       5.0                      # Si
181  181  2    136.0477376745031        130.05838758151256       5.0                      # Si
182  182  2    146.12504620271602       130.05838758151256       5.0                      # Si
183  183  2    156.20293649420915       130.05838758151256       5.0                      # Si
184  184  2    5.0386542354396875       130.05838758151256       5.0                      # Si
185  185  2    15.116544584266347       130.05838758151256       5.0                      # Si
186  186  2    25.193853112479246       130.05838758151256       5.0                      # Si
187  187  2    35.2717434613059         130.05838758151256       5.0                      # Si
188  188  2    45.34905193218528        130.05838758151256       5.0                      # Si
189  189  2    55.42694228101194        130.05838758151256       5.0                      # Si
190  190  2    65.50425080922484        130.05838758151256       5.0                      # Si
191  191  2    75.58214115805148        130.05838758151256       5.0                      # Si
192  192  2    80.62079539349118        132.9810479650072        5.0                      # Si
193  193  2    90.69868574231783        132.9810479650072        5.0                      # Si
194  194  2    100.77599421319721       132.9810479650072        5.0                      # Si
195  195  2    110.85388456202388       132.9810479650072        5.0                      # Si
196  196  2    120.93119309023676       132.9810479650072        5.0                      # Si
197  197  2    131.00908343906343       132.9810479650072        5.0                      # Si
198  198  2    141.0863919099428        132.9810479650072        5.0                      # Si
199  199  2    151.16428225876945       132.9810479650072        5.0                      # Si
200  200  2    161.24159078698236       132.9810479650072        5.0                      # Si
201  201  2    10.077890348826658       132.9810479650072        5.0                      # Si
202  202  2    20.155198819706033       132.9810479650072        5.0                      # Si
203  203  2    30.233089168532693       132.9810479650072        5.0                      # Si
204  204  2    40.31039769674559        132.9810479650072        5.0                      # Si
205  205  2    50.38828804557225        132.9810479650072        5.0                      # Si
206  206  2    60.46559651645162        132.9810479650072        5.0                      # Si
207  207  2    70.54348686527828        132.9810479650072        5.0                      # Si
208  208  2    90.69868574231783        138.82636873199647       5.0                      # Si
209  209  2    100.77599421319721       138.82636873199647       5.0                      # Si
210  210  2    110.85388456202388       138.82636873199647       5.0                      # Si
211  211  2    120.93119309023676       138.82636873199647       5.0                      # Si
212  212  2    131.00908343906343       138.82636873199647       5.0                      # Si
213  213  2    141.0863919099428        138.82636873199647       5.0                      # Si
214  214  2    151.16428225876945       138.82636873199647       5.0                      # Si
215  215  2    161.24159078698236       138.82636873199647       5.0                      # Si
216  216  2    10.077890348826658       138.82636873199647       5.0                      # Si
217  217  2    20.155198819706033       138.82636873199647       5.0                      # Si
218  218  2    30.233089168532693       138.82636873199647       5.0                      # Si
219  219  2    40.31039769674559        138.82636873199647       5.0                      # Si
220  220  2    50.38828804557225        138.82636873199647       5.0                      # Si
221  221  2    60.46559651645162        138.82636873199647       5.0                      # Si
222  222  2    70.54348686527828        138.82636873199647       5.0                      # Si
223  223  2    80.62079539349118        138.82636873199647       5.0                      # Si
224  224  2    85.65944962893087        1.461330191747313        5.0                      # Si
225  225  2    95.73733997775753        1.461330191747313        5.0                      # Si
226  226  2    105.81464850597042       1.461330191747313        5.0                      # Si
227  227  2    115.89253879746357       1.461330191747313        5.0                      # Si
228  228  2    125.96984732567645       1.461330191747313        5.0                      # Si
229  229  2    136.0477376745031        1.461330191747313        5.0                      # Si
230  230  2    146.12504620271602       1.461330191747313        5.0                      # Si
231  231  2    156.20293649420915       1.461330191747313        5.0                      # Si
232  232  2    5.0386542354396875       1.461330191747313        5.0                      # Si
233  233  2    15.116544584266347       1.461330191747313        5.0                      # Si
234  234  2    25.193853112479246       1.461330191747313        5.0                      # Si
235  235  2    35.2717434613059         1.461330191747313        5.0                      # Si
236  236  2    45.34905193218528        1.461330191747313        5.0                      # Si
237  237  2    55.42694228101194        1.461330191747313        5.0                      # Si
238  238  2    65.50425080922484        1.461330191747313        5.0                      # Si
239  239  2    75.58214115805148        1.461330191747313        5.0                      # Si
240  240  2    85.65944962893087        7.306650958736565        5.0                      # Si
241  241  2    95.73733997775753        7.306650958736565        5.0                      # Si
242  242  2    105.81464850597042       7.306650958736565        5.0                      # Si
243  243  2    115.89253879746357       7.306650958736565        5.0                      # Si
244  244  2    125.96984732567645       7.306650958736565        5.0                      # Si
245  245  2    136.0477376745031        7.306650958736565        5.0                      # Si
246  246  2    146.12504620271602       7.306650958736565        5.0                      # Si
247  247  2    156.20293649420915       7.306650958736565        5.0                      # Si
248  248  2    5.0386542354396875       7.306650958736565        5.0                      # Si
249  249  2    15.116544584266347       7.306650958736565        5.0                      # Si
250  250  2    25.193853112479246       7.306650958736565        5.0                      # Si
251  251  2    35.2717434613059         7.306650958736565        5.0                      # Si
252  252  2    45.34905193218528        7.306650958736565        5.0                      # Si
253  253  2    55.42694228101194        7.306650958736565        5.0                      # Si
254  254  2    65.50425080922484        7.306650958736565        5.0                      # Si
255  255  2    75.58214115805148        7.306650958736565        5.0                      # Si
256  256  2    80.62079539349118        10.229311399564716       5.0                      # Si
257  257  2    90.69868574231783        10.229311399564716       5.0                      # Si
258  258  2    100.77599421319721       10.229311399564716       5.0                      # Si
259  259  2    110.85388456202388       10.229311399564716       5.0                      # Si
260  260  2    120.93119309023676       10.229311399564716       5.0                      # Si
261  261  2    131.00908343906343       10.229311399564716       5.0                      # Si
262  262  2    141.0863919099428        10.229311399564716       5.0                      # Si
263  263  2    151.16428225876945       10.229311399564716       5.0                      # Si
264  264  2    161.24159078698236       10.229311399564716       5.0                      # Si
265  265  2    10.077890348826658       10.229311399564716       5.0                      # Si
266  266  2    20.155198819706033       10.229311399564716       5.0                      # Si
267  267  2    30.233089168532693       10.229311399564716       5.0                      # Si
268  268  2    40.31039769674559        10.229311399564716       5.0                      # Si
269  269  2    50.38828804557225        10.229311399564716       5.0                      # Si
270  270  2    60.46559651645162        10.229311399564716       5.0                      # Si
271  271  2    70.54348686527828        10.229311399564716       5.0                      # Si
272  272  2    90.69868574231783        16.074632166553965       5.0                      # Si
273  273  2    100.77599421319721       16.074632166553965       5.0                      # Si
274  274  2    110.85388456202388       16.074632166553965       5.0                      # Si
275  275  2    120.93119309023676       16.074632166553965       5.0                      # Si
276  276  2    131.00908343906343       16.074632166553965       5.0                      # Si
277  277  2    141.0863919099428        16.074632166553965       5.0                      # Si
278  278  2    151.16428225876945       16.074632166553965       5.0                      # Si
279  279  2    161.24159078698236       16.074632166553965       5.0                      # Si
280  280  2    10.077890348826658       16.074632166553965       5.0                      # Si
281  281  2    20.155198819706033       16.074632166553965       5.0                      # Si
282  282  2    30.233089168532693       16.074632166553965       5.0                      # Si
283  283  2    40.31039769674559        16.074632166553965       5.0                      # Si
284  284  2    50.38828804557225        16.074632166553965       5.0                      # Si
285  285  2    60.46559651645162        16.074632166553965       5.0                      # Si
286  286  2    70.54348686527828        16.074632166553965       5.0                      # Si
287  287  2    80.62079539349118        16.074632166553965       5.0                      # Si
288  288  2    85.65944962893087        18.997292550048595       5.0                      # Si
289  289  2    95.73733997775753        18.997292550048595       5.0                      # Si
290  290  2    105.81464850597042       18.997292550048595       5.0                      # Si
291  291  2    115.89253879746357       18.997292550048595       5.0                      # Si
292  292  2    125.96984732567645       18.997292550048595       5.0                      # Si
293  293  2    136.0477376745031        18.997292550048595       5.0                      # Si
294  294  2    146.12504620271602       18.997292550048595       5.0                      # Si
295  295  2    156.20293649420915       18.997292550048595       5.0                      # Si
296  296  2    5.0386542354396875       18.997292550048595       5.0                      # Si
297  297  2    15.116544584266347       18.997292550048595       5.0                      # Si
298  298  2    25.193853112479246       18.997292550048595       5.0                      # Si
299  299  2    35.2717434613059         18.997292550048595       5.0                      # Si
300  300  2    45.34905193218528        18.997292550048595       5.0                      # Si
301  301  2    55.42694228101194        18.997292550048595       5.0                      # Si
302  302  2    65.50425080922484        18.997292550048595       5.0                      # Si
303  303  2    75.58214115805148        18.997292550048595       5.0                      # Si
304  304  2    85.65944962893087        24.84261337437137        5.0                      # Si
305  305  2    95.73733997775753        24.84261337437137        5.0                      # Si
306  306  2    105.81464850597042       24.84261337437137        5.0                      # Si
307  307  2    115.89253879746357       24.84261337437137        5.0                      # Si
308  308  2    125.96984732567645       24.84261337437137        5.0                      # Si
309  309  2    136.0477376745031        24.84261337437137        5.0                      # Si
310  310  2    146.12504620271602       24.84261337437137        5.0                      # Si
311  311  2    156.20293649420915       24.84261337437137        5.0                      # Si