LAMMPS data file via write_data, version 22 Jul 2025, timestep = 148, units = electron

478 atoms
1 atom types
717 bonds
1 bond types
1434 angles
1 angle types

-0.19838532154753033 26.975241075772615 xlo xhi
-0.22643655145003963 23.4158738020605 ylo yhi
-0.5 0.5 zlo zhi

Masses

1 28.0855

Bond Coeffs # harmonic

1 0.8 1

Angle Coeffs # cosine/squared

1 0.2 120

Atoms # molecular

1 1 1 17.357211180817277 12.946294666746041 0 0 0 0
2 2 1 19.19262797651103 12.780952290028644 0 0 0 0
3 3 1 20.90626723918536 12.813502117595943 0 0 0 0
4 4 1 22.629642849328583 12.820161716988322 0 0 0 0
5 5 1 24.3595233083939 12.822385860914206 0 0 0 0
6 6 1 26.09168224478659 12.823316061021847 0 0 0 0
7 7 1 0.6507959679493344 12.823597978020896 0 0 0 0
8 8 1 2.3835360327053974 12.82331606487283 0 0 0 0
9 9 1 4.115694999553168 12.822385861750282 0 0 0 0
10 10 1 5.845575441713034 12.820161718689585 0 0 0 0
11 11 1 7.568951057710789 12.813502119035645 0 0 0 0
12 12 1 9.282590337763953 12.7809522891634 0 0 0 0
13 13 1 11.118007107887783 12.946294671911774 0 0 0 0
14 14 1 18.33200863175042 13.20248129616202 0 0 0 0
15 15 1 20.036887112373215 13.279411001447652 0 0 0 0
16 16 1 21.7622441592947 13.303030897494747 0 0 0 0
17 17 1 23.492401338171742 13.31014330206083 0 0 0 0
18 18 1 25.224829147465012 13.313170367717508 0 0 0 0
19 19 1 26.957865744550666 13.314374817357123 0 0 0 0
20 20 1 1.5173525535925065 13.314374827026363 0 0 0 0
21 21 1 3.250389130205094 13.313170370424382 0 0 0 0
22 22 1 4.982816971979724 13.310143296279625 0 0 0 0
23 23 1 6.712974126546092 13.303030895014942 0 0 0 0
24 24 1 8.438331186874997 13.279410992025205 0 0 0 0
25 25 1 10.143209652070126 13.202481302566978 0 0 0 0
26 26 1 18.266926012012135 14.111035398487296 0 0 0 0
27 27 1 20.000577382909416 14.232926794882136 0 0 0 0
28 28 1 21.74625079785344 14.270199008075307 0 0 0 0
29 29 1 23.48589107427675 14.2850804525578 0 0 0 0
30 30 1 25.22235488132456 14.291618844530861 0 0 0 0
31 31 1 26.95723383767648 14.294308433201428 0 0 0 0
32 32 1 1.517984460177491 14.294308427765838 0 0 0 0
33 33 1 3.252863403555672 14.29161883693241 0 0 0 0
34 34 1 4.989327243501253 14.28508045083265 0 0 0 0
35 35 1 6.728967484093757 14.270199023356074 0 0 0 0
36 36 1 8.474640902865348 14.232926804639893 0 0 0 0
37 37 1 10.20829226726056 14.11103540582074 0 0 0 0
38 38 1 17.26756631477334 14.177201433191115 0 0 0 0
39 39 1 19.09308042084208 14.663718495946418 0 0 0 0
40 40 1 20.861114454409307 14.738129117121474 0 0 0 0
41 41 1 22.61130691725433 14.766474249696387 0 0 0 0
42 42 1 24.35231783367592 14.778609243074007 0 0 0 0
43 43 1 26.089192212590092 14.784053991476151 0 0 0 0
44 44 1 0.6507959564570697 14.785718543017365 0 0 0 0
45 45 1 2.3860260700410003 14.784053989795359 0 0 0 0
46 46 1 4.1229004653267465 14.778609250451044 0 0 0 0
47 47 1 5.8639113917565115 14.766474242794688 0 0 0 0
48 48 1 7.614103832580613 14.738129129513183 0 0 0 0
49 49 1 9.382137864829318 14.66371849797775 0 0 0 0
50 50 1 11.207651975586296 14.177201431183338 0 0 0 0
51 51 1 17.079348685468755 15.352536446813305 0 0 0 0
52 52 1 19.027173229347934 15.59554995615013 0 0 0 0
53 53 1 20.836506543378842 15.696659016166533 0 0 0 0
54 54 1 22.601264245528707 15.736987736399815 0 0 0 0
55 55 1 24.34822181172553 15.755190445684741 0 0 0 0
56 56 1 26.08774702421136 15.763410204931066 0 0 0 0
57 57 1 0.6507959615657426 15.7659265400831 0 0 0 0
58 58 1 2.3874712668571627 15.763410196351376 0 0 0 0
59 59 1 4.126996477482753 15.755190452531316 0 0 0 0
60 60 1 5.873954046018852 15.736987727384712 0 0 0 0
61 61 1 7.638711743517448 15.696659028990657 0 0 0 0
62 62 1 9.448045077467508 15.595549968253591 0 0 0 0
63 63 1 11.39586961613296 15.35253644364387 0 0 0 0
64 64 1 13.59879689669224 16.195926248701106 0 0 0 0
65 65 1 14.87642135394844 16.195926242847886 0 0 0 0
66 66 1 16.11497733525083 16.038370350538806 0 0 0 0
67 67 1 18.080629831627895 15.989347693361033 0 0 0 0
68 68 1 19.934425891042427 16.144496275219996 0 0 0 0
69 69 1 21.719252178890695 16.208392311326655 0 0 0 0
70 70 1 23.474794776175596 16.237273826348954 0 0 0 0
71 71 1 25.218052447429937 16.250945799596295 0 0 0 0
72 72 1 26.956099367565695 16.256600427365207 0 0 0 0
73 73 1 1.5191189296597365 16.256600427400034 0 0 0 0
74 74 1 3.2571658306062323 16.250945809969664 0 0 0 0
75 75 1 5.000423509607159 16.23727382939351 0 0 0 0
76 76 1 6.755966111818581 16.208392318618927 0 0 0 0
77 77 1 8.540792390091053 16.144496266878573 0 0 0 0
78 78 1 10.394588489352104 15.989347708887808 0 0 0 0
79 79 1 12.360240900832803 16.03837035635146 0 0 0 0
80 80 1 14.970042360676226 17.211939464300162 0 0 0 0
81 81 1 16.481032161852024 17.062595469157863 0 0 0 0
82 82 1 18.174596148036002 17.028136743389123 0 0 0 0
83 83 1 19.954100227665773 17.11912286046862 0 0 0 0
84 84 1 21.722898014508868 17.18097089583349 0 0 0 0
85 85 1 23.47536013660052 17.213978635552497 0 0 0 0
86 86 1 25.21812656947821 17.230602437611477 0 0 0 0
87 87 1 26.956090095706838 17.237564959057064 0 0 0 0
88 88 1 1.519128182150428 17.237564957669587 0 0 0 0
89 89 1 3.2570917170679077 17.230602431088876 0 0 0 0
90 90 1 4.999858160698167 17.213978633501373 0 0 0 0
91 91 1 6.7523202869918855 17.180970912265153 0 0 0 0
92 92 1 8.521118035821438 17.119122854254613 0 0 0 0
93 93 1 10.300622153068744 17.028136786019264 0 0 0 0
94 94 1 11.994186088539042 17.06259545269086 0 0 0 0
95 95 1 13.505175963553768 17.21193946041861 0 0 0 0
96 96 1 14.237609201183854 17.72022261783603 0 0 0 0
97 97 1 15.783216610755156 17.654832412327792 0 0 0 0
98 98 1 17.38605028858283 17.53921763452373 0 0 0 0
99 99 1 19.095628942290887 17.574843316904673 0 0 0 0
100 100 1 20.85173393378722 17.64690913630815 0 0 0 0
101 101 1 22.60489111132978 17.691364962350836 0 0 0 0
102 102 1 24.34930619935381 17.715362936418703 0 0 0 0
103 103 1 26.088097611225155 17.726988976417708 0 0 0 0
104 104 1 0.650795950134491 17.730446299435105 0 0 0 0
105 105 1 2.3871206660712425 17.726988984553625 0 0 0 0
106 106 1 4.125912103150397 17.71536293157318 0 0 0 0
107 107 1 5.870327175071812 17.69136497931903 0 0 0 0
108 108 1 7.623484381271996 17.646909123830206 0 0 0 0
109 109 1 9.379589289899036 17.574843341786355 0 0 0 0
110 110 1 11.089168036794272 17.539217641576393 0 0 0 0
111 111 1 12.692001644675617 17.654832417276104 0 0 0 0
112 112 1 14.23760916146082 18.705877368205563 0 0 0 0
113 113 1 15.850428610216698 18.661442393166002 0 0 0 0
114 114 1 17.475575401918146 18.58630762136412 0 0 0 0
115 115 1 19.15413226159818 18.593938173813616 0 0 0 0
116 116 1 20.879113627703276 18.63839621030948 0 0 0 0
117 117 1 22.616654020586818 18.675269831751457 0 0 0 0
118 118 1 24.354277058741136 18.698216509684727 0 0 0 0
119 119 1 26.089930741286118 18.71009871649264 0 0 0 0
120 120 1 0.6507959555157858 18.713786706085738 0 0 0 0
121 121 1 2.3852875458549776 18.710098717618102 0 0 0 0
122 122 1 4.120941225852409 18.698216504601213 0 0 0 0
123 123 1 5.858564247373831 18.67526984304499 0 0 0 0
124 124 1 7.59610468280547 18.638396212945104 0 0 0 0
125 125 1 9.321085991045233 18.59393819607031 0 0 0 0
126 126 1 10.999642940443909 18.586307604963046 0 0 0 0
127 127 1 12.624789602829491 18.6614424230893 0 0 0 0
128 128 1 13.421876810401868 19.18599406274242 0 0 0 0
129 129 1 15.05334146095194 19.185994045039887 0 0 0 0
130 130 1 16.686158026369757 19.127058949013005 0 0 0 0
131 131 1 18.3407014815058 19.093364805061153 0 0 0 0
132 132 1 20.035387118710744 19.11693783223122 0 0 0 0
133 133 1 21.758689801793576 19.154368255297083 0 0 0 0
134 134 1 23.49107113843011 19.182199280197757 0 0 0 0
135 135 1 25.22469874787123 19.198567580631117 0 0 0 0
136 136 1 26.957923873159157 19.206003961391275 0 0 0 0
137 137 1 1.517294420820261 19.206003964974276 0 0 0 0
138 138 1 3.2505195416842194 19.198567572549432 0 0 0 0
139 139 1 4.984147124483554 19.18219929619471 0 0 0 0
140 140 1 6.7165284933730245 19.15436824510074 0 0 0 0
141 141 1 8.439831134095076 19.116937866754576 0 0 0 0
142 142 1 10.13451684978378 19.09336479157478 0 0 0 0
143 143 1 11.789060231337563 19.127058964507633 0 0 0 0
144 144 1 15.06585544437746 20.178274783841847 0 0 0 0
145 145 1 16.720505467993387 20.14167066276984 0 0 0 0
146 146 1 18.381240802252176 20.116865345383847 0 0 0 0
147 147 1 20.067602586954173 20.12661332333941 0 0 0 0
148 148 1 21.77819295511912 20.150662383949108 0 0 0 0
149 149 1 23.501278540619555 20.17198882205334 0 0 0 0
150 150 1 25.229415062651757 20.18576863633571 0 0 0 0
151 151 1 26.959277344716188 20.192343853901434 0 0 0 0
152 152 1 1.5159409332031906 20.19234384958183 0 0 0 0
153 153 1 3.2458032335999496 20.185768637363665 0 0 0 0
154 154 1 4.973939728764169 20.171988826607024 0 0 0 0
155 155 1 6.697025343374398 20.15066237927634 0 0 0 0
156 156 1 8.407615671676204 20.126613324735573 0 0 0 0
157 157 1 10.093977512937602 20.116865355925178 0 0 0 0
158 158 1 11.754712793641199 20.141670681675564 0 0 0 0
159 159 1 13.409362854066927 20.17827478514049 0 0 0 0
160 160 1 14.237609172277901 20.677154018054093 0 0 0 0
161 161 1 15.900161789698988 20.660238491341147 0 0 0 0
162 162 1 17.563011010401937 20.63136985108282 0 0 0 0
163 163 1 19.237623270700002 20.62392211811653 0 0 0 0
164 164 1 20.933315108298032 20.638886662164445 0 0 0 0
165 165 1 22.64635688657665 20.65931294690288 0 0 0 0
166 166 1 24.36891385568551 20.67518773743667 0 0 0 0
167 167 1 26.095899239759845 20.68439258262395 0 0 0 0
168 168 1 0.6507959603801412 20.687405908442557 0 0 0 0
169 169 1 2.3793190018662327 20.684392589085814 0 0 0 0
170 170 1 4.1063044941283176 20.67518772949211 0 0 0 0
171 171 1 5.828861355319501 20.659312957836654 0 0 0 0
172 172 1 7.54190321752204 20.63888665927539 0 0 0 0
173 173 1 9.237594960251494 20.623922125021387 0 0 0 0
174 174 1 10.912207300904843 20.631369890572337 0 0 0 0
175 175 1 12.575056470650786 20.660238476359286 0 0 0 0
176 176 1 14.23760915249173 21.670129169227927 0 0 0 0
177 177 1 15.91028647748178 21.66024738676516 0 0 0 0
178 178 1 17.581161232283105 21.642594982648784 0 0 0 0
179 179 1 19.258267686276888 21.63629935365364 0 0 0 0
180 180 1 20.950425356926527 21.644011164779407 0 0 0 0
181 181 1 22.657643593838618 21.65675873033284 0 0 0 0
182 182 1 24.375153483796925 21.667652149269188 0 0 0 0
183 183 1 26.09855309247092 21.67431378509712 0 0 0 0
184 184 1 0.6507959766573072 21.676540194360115 0 0 0 0
185 185 1 2.3766651492977338 21.674313792452573 0 0 0 0
186 186 1 4.100064843234265 21.667652135907456 0 0 0 0
187 187 1 5.817574639049972 21.656758746682733 0 0 0 0
188 188 1 7.524792981538024 21.644011158901474 0 0 0 0
189 189 1 9.2169505568158 21.636299355668104 0 0 0 0
190 190 1 10.894057074945309 21.642595001874223 0 0 0 0
191 191 1 12.564931770695877 21.660247361310653 0 0 0 0
192 192 1 13.39978732946185 22.163336666677896 0 0 0 0
193 193 1 15.075430945270497 22.16333667705286 0 0 0 0
194 194 1 16.74999571512298 22.151446513136776 0 0 0 0
195 195 1 18.425817606798084 22.141019883149163 0 0 0 0
196 196 1 20.11045214257999 22.141572905830024 0 0 0 0
197 197 1 21.808728211058366 22.150260666468977 0 0 0 0
198 198 1 23.519336234766772 22.16021306238815 0 0 0 0
199 199 1 25.238363404872317 22.16756215125178 0 0 0 0
200 200 1 26.961954751524633 22.171291361033965 0 0 0 0
201 201 1 1.5132635444857507 22.17129136770687 0 0 0 0
202 202 1 3.236854876084545 22.16756214012179 0 0 0 0
203 203 1 4.95588203588976 22.160213070895864 0 0 0 0
204 204 1 6.666490078734223 22.150260663338017 0 0 0 0
205 205 1 8.364766145937448 22.141572926687402 0 0 0 0
206 206 1 10.049400664697743 22.141019882046766 0 0 0 0
207 207 1 11.725222592110992 22.15144650408468 0 0 0 0
208 208 1 15.077326999992755 23.159710427121887 0 0 0 0
209 209 1 16.755597556805732 23.154255478453987 0 0 0 0
210 210 1 18.434189185784838 23.149234815843755 0 0 0 0
211 211 1 20.119310571683716 23.149130499559664 0 0 0 0
212 212 1 21.815874017018842 23.152897022200705 0 0 0 0
213 213 1 23.52406333254944 23.15745966708766 0 0 0 0
214 214 1 25.240883633138044 23.16093181837979 0 0 0 0
215 215 1 26.962700304885004 23.162723484544436 0 0 0 0
216 216 1 1.5125179916663016 23.16272347637664 0 0 0 0
217 217 1 3.2343346497746728 23.16093183098146 0 0 0 0
218 218 1 4.95115494230574 23.15745966015557 0 0 0 0
219 219 1 6.659344270100391 23.152897015206502 0 0 0 0
220 220 1 8.355907713462459 23.149130513777376 0 0 0 0
221 221 1 10.04102909295049 23.149234810415525 0 0 0 0
222 222 1 11.71962074716327 23.15425549917711 0 0 0 0
223 223 1 13.397891280020223 23.1597104748931 0 0 0 0
224 224 1 14.237609172944833 0.014425868435369886 0 0 0 0
225 225 1 15.917389386007086 0.012910545311667118 0 0 0 0
226 226 1 17.596221746265254 0.010043746670230206 0 0 0 0
227 227 1 19.278005644928307 0.00868323740361713 0 0 0 0
228 228 1 20.968416418195293 0.009781986177751526 0 0 0 0
229 229 1 22.67040210159302 0.012172745159510272 0 0 0 0
230 230 1 24.38270898346628 0.014427285351172237 0 0 0 0
231 231 1 26.1018437934841 0.01590059613833651 0 0 0 0
232 232 1 0.65079597864283 0.016405418445067255 0 0 0 0
233 233 1 2.373374436521217 0.015900600476790715 0 0 0 0
234 234 1 4.092509367159844 0.014427287575052643 0 0 0 0
235 235 1 5.804816143444529 0.012172732269826207 0 0 0 0
236 236 1 7.506801895199693 0.00978199250814366 0 0 0 0
237 237 1 9.197212594833537 0.00868324205393989 0 0 0 0
238 238 1 10.87899657038753 0.010043740146791082 0 0 0 0
239 239 1 12.557828850957248 0.012910571146192273 0 0 0 0
240 240 1 14.237609172944813 1.0103454257589424 0 0 0 0
241 241 1 15.917389386007063 1.0118607488826488 0 0 0 0
242 242 1 17.596221746265247 1.0147275475240882 0 0 0 0
243 243 1 19.278005644928307 1.0160880567907007 0 0 0 0
244 244 1 20.968416418195297 1.0149893080165708 0 0 0 0
245 245 1 22.670402101593012 1.0125985490348084 0 0 0 0
246 246 1 24.382708983466276 1.0103440088431446 0 0 0 0
247 247 1 26.101843793484086 1.008870698055975 0 0 0 0
248 248 1 0.6507959786428208 1.0083658757492506 0 0 0 0
249 249 1 2.373374436521211 1.0088706937175302 0 0 0 0
250 250 1 4.092509367159843 1.0103440066192668 0 0 0 0
251 251 1 5.8048161434445245 1.0125985619244942 0 0 0 0
252 252 1 7.506801895199699 1.0149893016861757 0 0 0 0
253 253 1 9.197212594833534 1.0160880521403737 0 0 0 0
254 254 1 10.87899657038752 1.0147275540475216 0 0 0 0
255 255 1 12.55782885095723 1.011860723048127 0 0 0 0
256 256 1 13.397891280020243 1.5073711728117674 0 0 0 0
257 257 1 15.07732699999277 1.507371220582986 0 0 0 0
258 258 1 16.75559755680574 1.512826169250885 0 0 0 0
259 259 1 18.434189185784838 1.5178468318611154 0 0 0 0
260 260 1 20.119310571683723 1.5179511481452088 0 0 0 0
261 261 1 21.81587401701884 1.5141846255041644 0 0 0 0
262 262 1 23.52406333254944 1.5096219806172086 0 0 0 0
263 263 1 25.240883633138054 1.50614982932508 0 0 0 0
264 264 1 26.96270030488502 1.5043581631604277 0 0 0 0
265 265 1 1.5125179916663076 1.504358171328219 0 0 0 0
266 266 1 3.234334649774673 1.506149816723403 0 0 0 0
267 267 1 4.951154942305738 1.5096219875492898 0 0 0 0
268 268 1 6.659344270100391 1.5141846324983586 0 0 0 0
269 269 1 8.355907713462452 1.517951133927497 0 0 0 0
270 270 1 10.041029092950492 1.5178468372893446 0 0 0 0
271 271 1 11.719620747163281 1.5128261485277599 0 0 0 0
272 272 1 15.075430945270483 2.5037449706519834 0 0 0 0
273 273 1 16.74999571512297 2.5156351345680754 0 0 0 0
274 274 1 18.425817606798073 2.526061764555689 0 0 0 0
275 275 1 20.110452142579987 2.5255087418748343 0 0 0 0
276 276 1 21.808728211058373 2.5168209812358806 0 0 0 0
277 277 1 23.519336234766776 2.5068685853167163 0 0 0 0
278 278 1 25.238363404872302 2.499519496453084 0 0 0 0
279 279 1 26.961954751524626 2.4957902866708936 0 0 0 0
280 280 1 1.5132635444857492 2.495790279997984 0 0 0 0
281 281 1 3.2368548760845433 2.4995195075830723 0 0 0 0
282 282 1 4.955882035889758 2.506868576808994 0 0 0 0
283 283 1 6.666490078734223 2.5168209843668374 0 0 0 0
284 284 1 8.364766145937452 2.5255087210174514 0 0 0 0
285 285 1 10.049400664697737 2.526061765658086 0 0 0 0
286 286 1 11.725222592110978 2.515635143620176 0 0 0 0
287 287 1 13.399787329461828 2.503744981026958 0 0 0 0
288 288 1 14.237609152491746 2.99695247847695 0 0 0 0
289 289 1 15.91028647748179 3.006834260939716 0 0 0 0
290 290 1 17.58116123228311 3.024486665056085 0 0 0 0
291 291 1 19.258267686276888 3.030782294051222 0 0 0 0
292 292 1 20.95042535692653 3.023070482925463 0 0 0 0
293 293 1 22.657643593838618 3.010322917372025 0 0 0 0
294 294 1 24.375153483796932 2.9994294984356755 0 0 0 0
295 295 1 26.098553092470922 2.992767862607746 0 0 0 0
296 296 1 0.6507959766573143 2.9905414533447456 0 0 0 0
297 297 1 2.3766651492977355 2.992767855252278 0 0 0 0
298 298 1 4.100064843234269 2.9994295117974015 0 0 0 0
299 299 1 5.817574639049972 3.0103229010221306 0 0 0 0
300 300 1 7.52479298153802 3.023070488803385 0 0 0 0
301 301 1 9.216950556815792 3.0307822920367626 0 0 0 0
302 302 1 10.894057074945314 3.02448664583066 0 0 0 0
303 303 1 12.564931770695893 3.0068342863942195 0 0 0 0
304 304 1 14.237609172277892 3.989927629650762 0 0 0 0
305 305 1 15.900161789698991 4.006843156363697 0 0 0 0
306 306 1 17.563011010401937 4.0357117966220315 0 0 0 0
307 307 1 19.2376232707 4.043159529588323 0 0 0 0
308 308 1 20.933315108298025 4.028194985540405 0 0 0 0
309 309 1 22.64635688657664 4.007768700801977 0 0 0 0
310 310 1 24.36891385568551 3.991893910268184 0 0 0 0
311 311 1 26.095899239759838 3.9826890650809164 0 0 0 0
312 312 1 0.6507959603801419 3.9796757392623108 0 0 0 0
313 313 1 2.3793190018662287 3.982689058619046 0 0 0 0
314 314 1 4.106304494128321 3.9918939182127593 0 0 0 0
315 315 1 5.828861355319499 4.00776868986821 0 0 0 0
316 316 1 7.541903217522043 4.02819498842947 0 0 0 0
317 317 1 9.237594960251494 4.043159522683466 0 0 0 0
318 318 1 10.912207300904843 4.035711757132509 0 0 0 0
319 319 1 12.575056470650777 4.006843171345563 0 0 0 0
320 320 1 13.40936285406694 4.488806862564376 0 0 0 0
321 321 1 15.065855444377469 4.4888068638630285 0 0 0 0
322 322 1 16.72050546799339 4.525410984935037 0 0 0 0
323 323 1 18.38124080225218 4.550216302321026 0 0 0 0
324 324 1 20.067602586954184 4.540468324365467 0 0 0 0
325 325 1 21.778192955119124 4.516419263755758 0 0 0 0
326 326 1 23.501278540619552 4.49509282565152 0 0 0 0
327 327 1 25.229415062651768 4.481313011369148 0 0 0 0
328 328 1 26.95927734471619 4.474737793803425 0 0 0 0
329 329 1 1.5159409332031921 4.474737798123023 0 0 0 0
330 330 1 3.245803233599951 4.481313010341194 0 0 0 0
331 331 1 4.97393972876417 4.49509282109783 0 0 0 0
332 332 1 6.697025343374398 4.516419268428525 0 0 0 0
333 333 1 8.407615671676204 4.540468322969294 0 0 0 0
334 334 1 10.093977512937602 4.550216291779693 0 0 0 0
335 335 1 11.754712793641204 4.5254109660293045 0 0 0 0
336 336 1 15.053341460951925 5.481087602664958 0 0 0 0
337 337 1 16.68615802636974 5.540022698691845 0 0 0 0
338 338 1 18.3407014815058 5.573716842643697 0 0 0 0
339 339 1 20.03538711871076 5.550143815473632 0 0 0 0
340 340 1 21.758689801793583 5.512713392407772 0 0 0 0
341 341 1 23.49107113843012 5.484882367507107 0 0 0 0
342 342 1 25.224698747871237 5.468514067073739 0 0 0 0
343 343 1 26.957923873159153 5.461077686313586 0 0 0 0
344 344 1 1.517294420820257 5.461077682730585 0 0 0 0
345 345 1 3.2505195416842207 5.468514075155434 0 0 0 0
346 346 1 4.984147124483554 5.484882351510151 0 0 0 0
347 347 1 6.716528493373031 5.5127134026041125 0 0 0 0
348 348 1 8.439831134095073 5.550143780950277 0 0 0 0
349 349 1 10.134516849783783 5.573716856130077 0 0 0 0
350 350 1 11.789060231337555 5.540022683197222 0 0 0 0
351 351 1 13.421876810401855 5.4810875849624345 0 0 0 0
352 352 1 14.237609161460835 5.961204279499309 0 0 0 0
353 353 1 15.850428610216701 6.005639254538867 0 0 0 0
354 354 1 17.475575401918146 6.080774026340751 0 0 0 0
355 355 1 19.154132261598175 6.073143473891244 0 0 0 0
356 356 1 20.87911362770327 6.028685437395388 0 0 0 0
357 357 1 22.616654020586807 5.991811815953412 0 0 0 0
358 358 1 24.354277058741136 5.968865138020139 0 0 0 0
359 359 1 26.089930741286118 5.956982931212214 0 0 0 0
360 360 1 0.6507959555157915 5.953294941619122 0 0 0 0
361 361 1 2.3852875458549776 5.9569829300867525 0 0 0 0
362 362 1 4.120941225852411 5.968865143103653 0 0 0 0
363 363 1 5.85856424737383 5.991811804659868 0 0 0 0
364 364 1 7.596104682805469 6.028685434759758 0 0 0 0
365 365 1 9.321085991045233 6.073143451634555 0 0 0 0
366 366 1 10.999642940443916 6.080774042741826 0 0 0 0
367 367 1 12.624789602829495 6.005639224615572 0 0 0 0
368 368 1 14.237609201183847 6.946859029868824 0 0 0 0
369 369 1 15.783216610755145 7.0122492353770625 0 0 0 0
370 370 1 17.386050288582833 7.127864013181124 0 0 0 0
371 371 1 19.09562894229089 7.092238330800175 0 0 0 0
372 372 1 20.85173393378723 7.020172511396701 0 0 0 0
373 373 1 22.60489111132979 6.975716685354017 0 0 0 0
374 374 1 24.349306199353823 6.951718711286154 0 0 0 0
375 375 1 26.088097611225155 6.94009267128715 0 0 0 0
376 376 1 0.6507959501344874 6.936635348269759 0 0 0 0
377 377 1 2.38712066607124 6.940092663151239 0 0 0 0
378 378 1 4.1259121031504025 6.951718716131687 0 0 0 0
379 379 1 5.870327175071818 6.975716668385826 0 0 0 0
380 380 1 7.623484381272002 7.020172523874652 0 0 0 0
381 381 1 9.379589289899037 7.092238305918502 0 0 0 0
382 382 1 11.089168036794272 7.1278640061284655 0 0 0 0
383 383 1 12.69200164467561 7.012249230428753 0 0 0 0
384 384 1 13.505175963553782 7.455142187286252 0 0 0 0
385 385 1 14.970042360676228 7.455142183404704 0 0 0 0
386 386 1 16.481032161852035 7.6044861785470115 0 0 0 0
387 387 1 18.174596148036 7.638944904315745 0 0 0 0
388 388 1 19.954100227665755 7.547958787236245 0 0 0 0
389 389 1 21.722898014508857 7.486110751871383 0 0 0 0
390 390 1 23.475360136600507 7.453103012152369 0 0 0 0
391 391 1 25.218126569478194 7.43647921009338 0 0 0 0
392 392 1 26.956090095706838 7.429516688647781 0 0 0 0
393 393 1 1.5191281821504352 7.4295166900352685 0 0 0 0
394 394 1 3.2570917170679077 7.436479216615978 0 0 0 0
395 395 1 4.999858160698163 7.453103014203482 0 0 0 0
396 396 1 6.752320286991883 7.486110735439703 0 0 0 0
397 397 1 8.52111803582143 7.547958793450242 0 0 0 0
398 398 1 10.300622153068744 7.638944861685598 0 0 0 0
399 399 1 11.994186088539047 7.604486195014004 0 0 0 0
400 400 1 14.876421353948441 8.471155404856974 0 0 0 0
401 401 1 16.11497733525084 8.628711297166051 0 0 0 0
402 402 1 18.080629831627906 8.677733954343818 0 0 0 0
403 403 1 19.93442589104244 8.522585372484858 0 0 0 0
404 404 1 21.719252178890702 8.458689336378209 0 0 0 0
405 405 1 23.474794776175607 8.429807821355908 0 0 0 0
406 406 1 25.218052447429955 8.416135848108576 0 0 0 0
407 407 1 26.956099367565695 8.410481220339665 0 0 0 0
408 408 1 1.5191189296597332 8.410481220304838 0 0 0 0
409 409 1 3.257165830606232 8.416135837735203 0 0 0 0
410 410 1 5.000423509607166 8.429807818311355 0 0 0 0
411 411 1 6.755966111818594 8.45868932908594 0 0 0 0
412 412 1 8.540792390091068 8.522585380826298 0 0 0 0
413 413 1 10.394588489352108 8.677733938817052 0 0 0 0
414 414 1 12.360240900832803 8.62871129135341 0 0 0 0
415 415 1 13.598796896692235 8.471155399003756 0 0 0 0
416 416 1 17.07934868546875 9.314545200891562 0 0 0 0
417 417 1 19.027173229347927 9.071531691554746 0 0 0 0
418 418 1 20.83650654337882 8.97042263153833 0 0 0 0
419 419 1 22.601264245528675 8.930093911305049 0 0 0 0
420 420 1 24.348221811725523 8.911891202020126 0 0 0 0
421 421 1 26.08774702421136 8.903671442773787 0 0 0 0
422 422 1 0.6507959615657422 8.901155107621753 0 0 0 0
423 423 1 2.387471266857165 8.903671451353482 0 0 0 0
424 424 1 4.1269964774827494 8.911891195173544 0 0 0 0
425 425 1 5.873954046018841 8.930093920320145 0 0 0 0
426 426 1 7.638711743517435 8.970422618714196 0 0 0 0
427 427 1 9.4480450774675 9.071531679451276 0 0 0 0
428 428 1 11.395869616132957 9.314545204060993 0 0 0 0
429 429 1 17.267566314773337 10.489880214513741 0 0 0 0
430 430 1 19.093080420842092 10.003363151758439 0 0 0 0
431 431 1 20.861114454409314 9.928952530583384 0 0 0 0
432 432 1 22.611306917254346 9.900607398008475 0 0 0 0
433 433 1 24.352317833675922 9.888472404630852 0 0 0 0
434 434 1 26.089192212590085 9.883027656228707 0 0 0 0
435 435 1 0.650795956457067 9.881363104687496 0 0 0 0
436 436 1 2.3860260700410008 9.8830276579095 0 0 0 0
437 437 1 4.12290046532675 9.888472397253814 0 0 0 0
438 438 1 5.863911391756528 9.90060740491017 0 0 0 0
439 439 1 7.614103832580631 9.92895251819168 0 0 0 0
440 440 1 9.382137864829337 10.003363149727118 0 0 0 0
441 441 1 11.207651975586304 10.489880216521525 0 0 0 0
442 442 1 18.266926012012128 10.556046249217573 0 0 0 0
443 443 1 20.00057738290939 10.43415485282273 0 0 0 0
444 444 1 21.746250797853428 10.396882639629556 0 0 0 0
445 445 1 23.485891074276743 10.382001195147062 0 0 0 0
446 446 1 25.222354881324552 10.375462803173994 0 0 0 0
447 447 1 26.95723383767648 10.372773214503432 0 0 0 0
448 448 1 1.5179844601774921 10.372773219939017 0 0 0 0
449 449 1 3.252863403555672 10.375462810772452 0 0 0 0
450 450 1 4.9893272435012435 10.382001196872205 0 0 0 0
451 451 1 6.7289674840937375 10.396882624348784 0 0 0 0
452 452 1 8.474640902865325 10.434154843064961 0 0 0 0
453 453 1 10.208292267260548 10.556046241884118 0 0 0 0
454 454 1 18.33200863175042 11.46460035154284 0 0 0 0
455 455 1 20.036887112373233 11.387670646257211 0 0 0 0
456 456 1 21.762244159294703 11.364050750210122 0 0 0 0
457 457 1 23.492401338171746 11.356938345644028 0 0 0 0
458 458 1 25.22482914746501 11.353911279987354 0 0 0 0
459 459 1 26.957865744550674 11.352706830347737 0 0 0 0
460 460 1 1.5173525535925012 11.352706820678499 0 0 0 0
461 461 1 3.250389130205092 11.353911277280478 0 0 0 0
462 462 1 4.9828169719797355 11.356938351425233 0 0 0 0
463 463 1 6.712974126546116 11.364050752689923 0 0 0 0
464 464 1 8.43833118687502 11.387670655679656 0 0 0 0
465 465 1 10.143209652070135 11.464600345137882 0 0 0 0
466 466 1 17.35721118081728 11.720786980958822 0 0 0 0
467 467 1 19.192627976511012 11.88612935767622 0 0 0 0
468 468 1 20.906267239185357 11.853579530108918 0 0 0 0
469 469 1 22.629642849328583 11.84691993071654 0 0 0 0
470 470 1 24.359523308393893 11.844695786790652 0 0 0 0
471 471 1 26.091682244786593 11.843765586683016 0 0 0 0
472 472 1 0.6507959679493319 11.843483669683957 0 0 0 0
473 473 1 2.3835360327054036 11.843765582832033 0 0 0 0
474 474 1 4.11569499955316 11.844695785954574 0 0 0 0
475 475 1 5.84557544171302 11.846919929015282 0 0 0 0
476 476 1 7.568951057710764 11.85357952866921 0 0 0 0
477 477 1 9.282590337763928 11.886129358541464 0 0 0 0
478 478 1 11.118007107887781 11.720786975793093 0 0 0 0

Velocities

1 0 0 0
2 0 0 0
3 0 0 0
4 0 0 0
5 0 0 0
6 0 0 0
7 0 0 0
8 0 0 0
9 0 0 0
10 0 0 0
11 0 0 0
12 0 0 0
13 0 0 0
14 0 0 0
15 0 0 0
16 0 0 0
17 0 0 0
18 0 0 0
19 0 0 0
20 0 0 0
21 0 0 0
22 0 0 0
23 0 0 0
24 0 0 0
25 0 0 0
26 0 0 0
27 0 0 0
28 0 0 0
29 0 0 0
30 0 0 0
31 0 0 0
32 0 0 0
33 0 0 0
34 0 0 0
35 0 0 0
36 0 0 0
37 0 0 0
38 0 0 0
39 0 0 0
40 0 0 0
41 0 0 0
42 0 0 0
43 0 0 0
44 0 0 0
45 0 0 0
46 0 0 0
47 0 0 0
48 0 0 0
49 0 0 0
50 0 0 0
51 0 0 0
52 0 0 0
53 0 0 0
54 0 0 0
55 0 0 0
56 0 0 0
57 0 0 0
58 0 0 0
59 0 0 0
60 0 0 0
61 0 0 0
62 0 0 0
63 0 0 0
64 0 0 0
65 0 0 0
66 0 0 0
67 0 0 0
68 0 0 0
69 0 0 0
70 0 0 0
71 0 0 0
72 0 0 0
73 0 0 0
74 0 0 0
75 0 0 0
76 0 0 0
77 0 0 0
78 0 0 0
79 0 0 0
80 0 0 0
81 0 0 0
82 0 0 0
83 0 0 0
84 0 0 0
85 0 0 0
86 0 0 0
87 0 0 0
88 0 0 0
89 0 0 0
90 0 0 0
91 0 0 0
92 0 0 0
93 0 0 0
94 0 0 0
95 0 0 0
96 0 0 0
97 0 0 0
98 0 0 0
99 0 0 0
100 0 0 0
101 0 0 0
102 0 0 0
103 0 0 0
104 0 0 0
105 0 0 0
106 0 0 0
107 0 0 0
108 0 0 0
109 0 0 0
110 0 0 0
111 0 0 0
112 0 0 0
113 0 0 0
114 0 0 0
115 0 0 0
116 0 0 0
117 0 0 0
118 0 0 0
119 0 0 0
120 0 0 0
121 0 0 0
122 0 0 0
123 0 0 0
124 0 0 0
125 0 0 0
126 0 0 0
127 0 0 0
128 0 0 0
129 0 0 0
130 0 0 0
131 0 0 0
132 0 0 0
133 0 0 0
134 0 0 0
135 0 0 0
136 0 0 0
137 0 0 0
138 0 0 0
139 0 0 0
140 0 0 0
141 0 0 0
142 0 0 0
143 0 0 0
144 0 0 0
145 0 0 0
146 0 0 0
147 0 0 0
148 0 0 0
149 0 0 0
150 0 0 0
151 0 0 0
152 0 0 0
153 0 0 0
154 0 0 0
155 0 0 0
156 0 0 0
157 0 0 0
158 0 0 0
159 0 0 0
160 0 0 0
161 0 0 0
162 0 0 0
163 0 0 0
164 0 0 0
165 0 0 0
166 0 0 0
167 0 0 0
168 0 0 0
169 0 0 0
170 0 0 0
171 0 0 0
172 0 0 0
173 0 0 0
174 0 0 0
175 0 0 0
176 0 0 0
177 0 0 0
178 0 0 0
179 0 0 0
180 0 0 0
181 0 0 0
182 0 0 0
183 0 0 0
184 0 0 0
185 0 0 0
186 0 0 0
187 0 0 0
188 0 0 0
189 0 0 0
190 0 0 0
191 0 0 0
192 0 0 0
193 0 0 0
194 0 0 0
195 0 0 0
196 0 0 0
197 0 0 0
198 0 0 0
199 0 0 0
200 0 0 0
201 0 0 0
202 0 0 0
203 0 0 0
204 0 0 0
205 0 0 0
206 0 0 0
207 0 0 0
208 0 0 0
209 0 0 0
210 0 0 0
211 0 0 0
212 0 0 0
213 0 0 0
214 0 0 0
215 0 0 0
216 0 0 0
217 0 0 0
218 0 0 0
219 0 0 0
220 0 0 0
221 0 0 0
222 0 0 0
223 0 0 0
224 0 0 0
225 0 0 0
226 0 0 0
227 0 0 0
228 0 0 0
229 0 0 0
230 0 0 0
231 0 0 0
232 0 0 0
233 0 0 0
234 0 0 0
235 0 0 0
236 0 0 0
237 0 0 0
238 0 0 0
239 0 0 0
240 0 0 0
241 0 0 0
242 0 0 0
243 0 0 0
244 0 0 0
245 0 0 0
246 0 0 0
247 0 0 0
248 0 0 0
249 0 0 0
250 0 0 0
251 0 0 0
252 0 0 0
253 0 0 0
254 0 0 0
255 0 0 0
256 0 0 0
257 0 0 0
258 0 0 0
259 0 0 0
260 0 0 0
261 0 0 0
262 0 0 0
263 0 0 0
264 0 0 0
265 0 0 0
266 0 0 0
267 0 0 0
268 0 0 0
269 0 0 0
270 0 0 0
271 0 0 0
272 0 0 0
273 0 0 0
274 0 0 0
275 0 0 0
276 0 0 0
277 0 0 0
278 0 0 0
279 0 0 0
280 0 0 0
281 0 0 0
282 0 0 0
283 0 0 0
284 0 0 0
285 0 0 0
286 0 0 0
287 0 0 0
288 0 0 0
289 0 0 0
290 0 0 0
291 0 0 0
292 0 0 0
293 0 0 0
294 0 0 0
295 0 0 0
296 0 0 0
297 0 0 0
298 0 0 0
299 0 0 0
300 0 0 0
301 0 0 0
302 0 0 0
303 0 0 0
304 0 0 0
305 0 0 0
306 0 0 0
307 0 0 0
308 0 0 0
309 0 0 0
310 0 0 0
311 0 0 0
312 0 0 0
313 0 0 0
314 0 0 0
315 0 0 0
316 0 0 0
317 0 0 0
318 0 0 0
319 0 0 0
320 0 0 0
321 0 0 0
322 0 0 0
323 0 0 0
324 0 0 0
325 0 0 0
326 0 0 0
327 0 0 0
328 0 0 0
329 0 0 0
330 0 0 0
331 0 0 0
332 0 0 0
333 0 0 0
334 0 0 0
335 0 0 0
336 0 0 0
337 0 0 0
338 0 0 0
339 0 0 0
340 0 0 0
341 0 0 0
342 0 0 0
343 0 0 0
344 0 0 0
345 0 0 0
346 0 0 0
347 0 0 0
348 0 0 0
349 0 0 0
350 0 0 0
351 0 0 0
352 0 0 0
353 0 0 0
354 0 0 0
355 0 0 0
356 0 0 0
357 0 0 0
358 0 0 0
359 0 0 0
360 0 0 0