DATA FILE Produced from netmc results (cf David Morley)
2868 atoms
9560 bonds
0 angles
0 dihedrals
0 impropers
2 atom types
0 bond types
2 bond types
0 angle types
0 dihedral types
0 improper types
0.00000 161.2416664099021 xlo xhi
0.00000 140.28769892374376 ylo yhi
0.0000 200.0000 zlo zhi

# Pair Coeffs
#
# 1  O
# 2  Si

# Bond Coeffs
# 
# 1  O-O
# 2  Si-O
# 3  O-O rep
# 4  Si-Si rep

 Masses

1 28.10000 # O 
2 32.01000 # Si

 Atoms # molecular

1    1    1    105.81464850597042       77.45050044927521        8.040569334518267        # O
2    2    1    115.89253879746357       77.45050044927521        8.040569334518267        # O
3    3    1    125.96984732567645       77.45050044927521        8.040569334518267        # O
4    4    1    136.0477376745031        77.45050044927521        8.040569334518267        # O
5    5    1    146.12504620271602       77.45050044927521        8.040569334518267        # O
6    6    1    156.20293649420915       77.45050044927521        8.040569334518267        # O
7    7    1    5.0386542354396875       77.45050044927521        8.040569334518267        # O
8    8    1    15.116544584266347       77.45050044927521        8.040569334518267        # O
9    9    1    25.193853112479246       77.45050044927521        8.040569334518267        # O
10   10   1    35.2717434613059         77.45050044927521        8.040569334518267        # O
11   11   1    45.34905193218528        77.45050044927521        8.040569334518267        # O
12   12   1    55.42694228101194        77.45050044927521        8.040569334518267        # O
13   13   1    65.50425080922484        77.45050044927521        8.040569334518267        # O
14   14   1    110.85388456202388       80.37316083276984        8.040569334518267        # O
15   15   1    120.93119309023676       80.37316083276984        8.040569334518267        # O
16   16   1    131.00908343906343       80.37316083276984        8.040569334518267        # O
17   17   1    141.0863919099428        80.37316083276984        8.040569334518267        # O
18   18   1    151.16428225876945       80.37316083276984        8.040569334518267        # O
19   19   1    161.24159078698236       80.37316083276984        8.040569334518267        # O
20   20   1    10.077890348826658       80.37316083276984        8.040569334518267        # O
21   21   1    20.155198819706033       80.37316083276984        8.040569334518267        # O
22   22   1    30.233089168532693       80.37316083276984        8.040569334518267        # O
23   23   1    40.31039769674559        80.37316083276984        8.040569334518267        # O
24   24   1    50.38828804557225        80.37316083276984        8.040569334518267        # O
25   25   1    60.46559651645162        80.37316083276984        8.040569334518267        # O
26   26   1    110.85388456202388       86.21848165709262        8.040569334518267        # O
27   27   1    120.93119309023676       86.21848165709262        8.040569334518267        # O
28   28   1    131.00908343906343       86.21848165709262        8.040569334518267        # O
29   29   1    141.0863919099428        86.21848165709262        8.040569334518267        # O
30   30   1    151.16428225876945       86.21848165709262        8.040569334518267        # O
31   31   1    161.24159078698236       86.21848165709262        8.040569334518267        # O
32   32   1    10.077890348826658       86.21848165709262        8.040569334518267        # O
33   33   1    20.155198819706033       86.21848165709262        8.040569334518267        # O
34   34   1    30.233089168532693       86.21848165709262        8.040569334518267        # O
35   35   1    40.31039769674559        86.21848165709262        8.040569334518267        # O
36   36   1    50.38828804557225        86.21848165709262        8.040569334518267        # O
37   37   1    60.46559651645162        86.21848165709262        8.040569334518267        # O
38   38   1    105.81464850597042       89.14114204058724        8.040569334518267        # O
39   39   1    115.89253879746357       89.14114204058724        8.040569334518267        # O
40   40   1    125.96984732567645       89.14114204058724        8.040569334518267        # O
41   41   1    136.0477376745031        89.14114204058724        8.040569334518267        # O
42   42   1    146.12504620271602       89.14114204058724        8.040569334518267        # O
43   43   1    156.20293649420915       89.14114204058724        8.040569334518267        # O
44   44   1    5.0386542354396875       89.14114204058724        8.040569334518267        # O
45   45   1    15.116544584266347       89.14114204058724        8.040569334518267        # O
46   46   1    25.193853112479246       89.14114204058724        8.040569334518267        # O
47   47   1    35.2717434613059         89.14114204058724        8.040569334518267        # O
48   48   1    45.34905193218528        89.14114204058724        8.040569334518267        # O
49   49   1    55.42694228101194        89.14114204058724        8.040569334518267        # O
50   50   1    65.50425080922484        89.14114204058724        8.040569334518267        # O
51   51   1    105.81464850597042       94.9864628075765         8.040569334518267        # O
52   52   1    115.89253879746357       94.9864628075765         8.040569334518267        # O
53   53   1    125.96984732567645       94.9864628075765         8.040569334518267        # O
54   54   1    136.0477376745031        94.9864628075765         8.040569334518267        # O
55   55   1    146.12504620271602       94.9864628075765         8.040569334518267        # O
56   56   1    156.20293649420915       94.9864628075765         8.040569334518267        # O
57   57   1    5.0386542354396875       94.9864628075765         8.040569334518267        # O
58   58   1    15.116544584266347       94.9864628075765         8.040569334518267        # O
59   59   1    25.193853112479246       94.9864628075765         8.040569334518267        # O
60   60   1    35.2717434613059         94.9864628075765         8.040569334518267        # O
61   61   1    45.34905193218528        94.9864628075765         8.040569334518267        # O
62   62   1    55.42694228101194        94.9864628075765         8.040569334518267        # O
63   63   1    65.50425080922484        94.9864628075765         8.040569334518267        # O
64   64   1    80.62079539349118        97.90912319107113        8.040569334518267        # O
65   65   1    90.69868574231783        97.90912319107113        8.040569334518267        # O
66   66   1    100.77599421319721       97.90912319107113        8.040569334518267        # O
67   67   1    110.85388456202388       97.90912319107113        8.040569334518267        # O
68   68   1    120.93119309023676       97.90912319107113        8.040569334518267        # O
69   69   1    131.00908343906343       97.90912319107113        8.040569334518267        # O
70   70   1    141.0863919099428        97.90912319107113        8.040569334518267        # O
71   71   1    151.16428225876945       97.90912319107113        8.040569334518267        # O
72   72   1    161.24159078698236       97.90912319107113        8.040569334518267        # O
73   73   1    10.077890348826658       97.90912319107113        8.040569334518267        # O
74   74   1    20.155198819706033       97.90912319107113        8.040569334518267        # O
75   75   1    30.233089168532693       97.90912319107113        8.040569334518267        # O
76   76   1    40.31039769674559        97.90912319107113        8.040569334518267        # O
77   77   1    50.38828804557225        97.90912319107113        8.040569334518267        # O
78   78   1    60.46559651645162        97.90912319107113        8.040569334518267        # O
79   79   1    70.54348686527828        97.90912319107113        8.040569334518267        # O
80   80   1    90.69868574231783        103.75444401539389       8.040569334518267        # O
81   81   1    100.77599421319721       103.75444401539389       8.040569334518267        # O
82   82   1    110.85388456202388       103.75444401539389       8.040569334518267        # O
83   83   1    120.93119309023676       103.75444401539389       8.040569334518267        # O
84   84   1    131.00908343906343       103.75444401539389       8.040569334518267        # O
85   85   1    141.0863919099428        103.75444401539389       8.040569334518267        # O
86   86   1    151.16428225876945       103.75444401539389       8.040569334518267        # O
87   87   1    161.24159078698236       103.75444401539389       8.040569334518267        # O
88   88   1    10.077890348826658       103.75444401539389       8.040569334518267        # O
89   89   1    20.155198819706033       103.75444401539389       8.040569334518267        # O
90   90   1    30.233089168532693       103.75444401539389       8.040569334518267        # O
91   91   1    40.31039769674559        103.75444401539389       8.040569334518267        # O
92   92   1    50.38828804557225        103.75444401539389       8.040569334518267        # O
93   93   1    60.46559651645162        103.75444401539389       8.040569334518267        # O
94   94   1    70.54348686527828        103.75444401539389       8.040569334518267        # O
95   95   1    80.62079539349118        103.75444401539389       8.040569334518267        # O
96   96   1    85.65944962893087        106.67710439888852       8.040569334518267        # O
97   97   1    95.73733997775753        106.67710439888852       8.040569334518267        # O
98   98   1    105.81464850597042       106.67710439888852       8.040569334518267        # O
99   99   1    115.89253879746357       106.67710439888852       8.040569334518267        # O
100  100  1    125.96984732567645       106.67710439888852       8.040569334518267        # O
101  101  1    136.0477376745031        106.67710439888852       8.040569334518267        # O
102  102  1    146.12504620271602       106.67710439888852       8.040569334518267        # O
103  103  1    156.20293649420915       106.67710439888852       8.040569334518267        # O
104  104  1    5.0386542354396875       106.67710439888852       8.040569334518267        # O
105  105  1    15.116544584266347       106.67710439888852       8.040569334518267        # O
106  106  1    25.193853112479246       106.67710439888852       8.040569334518267        # O
107  107  1    35.2717434613059         106.67710439888852       8.040569334518267        # O
108  108  1    45.34905193218528        106.67710439888852       8.040569334518267        # O
109  109  1    55.42694228101194        106.67710439888852       8.040569334518267        # O
110  110  1    65.50425080922484        106.67710439888852       8.040569334518267        # O
111  111  1    75.58214115805148        106.67710439888852       8.040569334518267        # O
112  112  1    85.65944962893087        112.52242516587778       8.040569334518267        # O
113  113  1    95.73733997775753        112.52242516587778       8.040569334518267        # O
114  114  1    105.81464850597042       112.52242516587778       8.040569334518267        # O
115  115  1    115.89253879746357       112.52242516587778       8.040569334518267        # O
116  116  1    125.96984732567645       112.52242516587778       8.040569334518267        # O
117  117  1    136.0477376745031        112.52242516587778       8.040569334518267        # O
118  118  1    146.12504620271602       112.52242516587778       8.040569334518267        # O
119  119  1    156.20293649420915       112.52242516587778       8.040569334518267        # O
120  120  1    5.0386542354396875       112.52242516587778       8.040569334518267        # O
121  121  1    15.116544584266347       112.52242516587778       8.040569334518267        # O
122  122  1    25.193853112479246       112.52242516587778       8.040569334518267        # O
123  123  1    35.2717434613059         112.52242516587778       8.040569334518267        # O
124  124  1    45.34905193218528        112.52242516587778       8.040569334518267        # O
125  125  1    55.42694228101194        112.52242516587778       8.040569334518267        # O
126  126  1    65.50425080922484        112.52242516587778       8.040569334518267        # O
127  127  1    75.58214115805148        112.52242516587778       8.040569334518267        # O
128  128  1    80.62079539349118        115.44508560670593       8.040569334518267        # O
129  129  1    90.69868574231783        115.44508560670593       8.040569334518267        # O
130  130  1    100.77599421319721       115.44508560670593       8.040569334518267        # O
131  131  1    110.85388456202388       115.44508560670593       8.040569334518267        # O
132  132  1    120.93119309023676       115.44508560670593       8.040569334518267        # O
133  133  1    131.00908343906343       115.44508560670593       8.040569334518267        # O
134  134  1    141.0863919099428        115.44508560670593       8.040569334518267        # O
135  135  1    151.16428225876945       115.44508560670593       8.040569334518267        # O
136  136  1    161.24159078698236       115.44508560670593       8.040569334518267        # O
137  137  1    10.077890348826658       115.44508560670593       8.040569334518267        # O
138  138  1    20.155198819706033       115.44508560670593       8.040569334518267        # O
139  139  1    30.233089168532693       115.44508560670593       8.040569334518267        # O
140  140  1    40.31039769674559        115.44508560670593       8.040569334518267        # O
141  141  1    50.38828804557225        115.44508560670593       8.040569334518267        # O
142  142  1    60.46559651645162        115.44508560670593       8.040569334518267        # O
143  143  1    70.54348686527828        115.44508560670593       8.040569334518267        # O
144  144  1    90.69868574231783        121.29040637369518       8.040569334518267        # O
145  145  1    100.77599421319721       121.29040637369518       8.040569334518267        # O
146  146  1    110.85388456202388       121.29040637369518       8.040569334518267        # O
147  147  1    120.93119309023676       121.29040637369518       8.040569334518267        # O
148  148  1    131.00908343906343       121.29040637369518       8.040569334518267        # O
149  149  1    141.0863919099428        121.29040637369518       8.040569334518267        # O
150  150  1    151.16428225876945       121.29040637369518       8.040569334518267        # O
151  151  1    161.24159078698236       121.29040637369518       8.040569334518267        # O
152  152  1    10.077890348826658       121.29040637369518       8.040569334518267        # O
153  153  1    20.155198819706033       121.29040637369518       8.040569334518267        # O
154  154  1    30.233089168532693       121.29040637369518       8.040569334518267        # O
155  155  1    40.31039769674559        121.29040637369518       8.040569334518267        # O
156  156  1    50.38828804557225        121.29040637369518       8.040569334518267        # O
157  157  1    60.46559651645162        121.29040637369518       8.040569334518267        # O
158  158  1    70.54348686527828        121.29040637369518       8.040569334518267        # O
159  159  1    80.62079539349118        121.29040637369518       8.040569334518267        # O
160  160  1    85.65944962893087        124.21306675718981       8.040569334518267        # O
161  161  1    95.73733997775753        124.21306675718981       8.040569334518267        # O
162  162  1    105.81464850597042       124.21306675718981       8.040569334518267        # O
163  163  1    115.89253879746357       124.21306675718981       8.040569334518267        # O
164  164  1    125.96984732567645       124.21306675718981       8.040569334518267        # O
165  165  1    136.0477376745031        124.21306675718981       8.040569334518267        # O
166  166  1    146.12504620271602       124.21306675718981       8.040569334518267        # O
167  167  1    156.20293649420915       124.21306675718981       8.040569334518267        # O
168  168  1    5.0386542354396875       124.21306675718981       8.040569334518267        # O
169  169  1    15.116544584266347       124.21306675718981       8.040569334518267        # O
170  170  1    25.193853112479246       124.21306675718981       8.040569334518267        # O
171  171  1    35.2717434613059         124.21306675718981       8.040569334518267        # O
172  172  1    45.34905193218528        124.21306675718981       8.040569334518267        # O
173  173  1    55.42694228101194        124.21306675718981       8.040569334518267        # O
174  174  1    65.50425080922484        124.21306675718981       8.040569334518267        # O
175  175  1    75.58214115805148        124.21306675718981       8.040569334518267        # O
176  176  1    85.65944962893087        130.05838758151256       8.040569334518267        # O
177  177  1    95.73733997775753        130.05838758151256       8.040569334518267        # O
178  178  1    105.81464850597042       130.05838758151256       8.040569334518267        # O
179  179  1    115.89253879746357       130.05838758151256       8.040569334518267        # O
180  180  1    125.96984732567645       130.05838758151256       8.040569334518267        # O
181  181  1    136.0477376745031        130.05838758151256       8.040569334518267        # O
182  182  1    146.12504620271602       130.05838758151256       8.040569334518267        # O
183  183  1    156.20293649420915       130.05838758151256       8.040569334518267        # O
184  184  1    5.0386542354396875       130.05838758151256       8.040569334518267        # O
185  185  1    15.116544584266347       130.05838758151256       8.040569334518267        # O
186  186  1    25.193853112479246       130.05838758151256       8.040569334518267        # O
187  187  1    35.2717434613059         130.05838758151256       8.040569334518267        # O
188  188  1    45.34905193218528        130.05838758151256       8.040569334518267        # O
189  189  1    55.42694228101194        130.05838758151256       8.040569334518267        # O
190  190  1    65.50425080922484        130.05838758151256       8.040569334518267        # O
191  191  1    75.58214115805148        130.05838758151256       8.040569334518267        # O
192  192  1    80.62079539349118        132.9810479650072        8.040569334518267        # O
193  193  1    90.69868574231783        132.9810479650072        8.040569334518267        # O
194  194  1    100.77599421319721       132.9810479650072        8.040569334518267        # O
195  195  1    110.85388456202388       132.9810479650072        8.040569334518267        # O
196  196  1    120.93119309023676       132.9810479650072        8.040569334518267        # O
197  197  1    131.00908343906343       132.9810479650072        8.040569334518267        # O
198  198  1    141.0863919099428        132.9810479650072        8.040569334518267        # O
199  199  1    151.16428225876945       132.9810479650072        8.040569334518267        # O
200  200  1    161.24159078698236       132.9810479650072        8.040569334518267        # O
201  201  1    10.077890348826658       132.9810479650072        8.040569334518267        # O
202  202  1    20.155198819706033       132.9810479650072        8.040569334518267        # O
203  203  1    30.233089168532693       132.9810479650072        8.040569334518267        # O
204  204  1    40.31039769674559        132.9810479650072        8.040569334518267        # O
205  205  1    50.38828804557225        132.9810479650072        8.040569334518267        # O
206  206  1    60.46559651645162        132.9810479650072        8.040569334518267        # O
207  207  1    70.54348686527828        132.9810479650072        8.040569334518267        # O
208  208  1    90.69868574231783        138.82636873199647       8.040569334518267        # O
209  209  1    100.77599421319721       138.82636873199647       8.040569334518267        # O
210  210  1    110.85388456202388       138.82636873199647       8.040569334518267        # O
211  211  1    120.93119309023676       138.82636873199647       8.040569334518267        # O
212  212  1    131.00908343906343       138.82636873199647       8.040569334518267        # O
213  213  1    141.0863919099428        138.82636873199647       8.040569334518267        # O
214  214  1    151.16428225876945       138.82636873199647       8.040569334518267        # O
215  215  1    161.24159078698236       138.82636873199647       8.040569334518267        # O
216  216  1    10.077890348826658       138.82636873199647       8.040569334518267        # O
217  217  1    20.155198819706033       138.82636873199647       8.040569334518267        # O
218  218  1    30.233089168532693       138.82636873199647       8.040569334518267        # O
219  219  1    40.31039769674559        138.82636873199647       8.040569334518267        # O
220  220  1    50.38828804557225        138.82636873199647       8.040569334518267        # O
221  221  1    60.46559651645162        138.82636873199647       8.040569334518267        # O
222  222  1    70.54348686527828        138.82636873199647       8.040569334518267        # O
223  223  1    80.62079539349118        138.82636873199647       8.040569334518267        # O
224  224  1    85.65944962893087        1.461330191747313        8.040569334518267        # O
225  225  1    95.73733997775753        1.461330191747313        8.040569334518267        # O
226  226  1    105.81464850597042       1.461330191747313        8.040569334518267        # O
227  227  1    115.89253879746357       1.461330191747313        8.040569334518267        # O
228  228  1    125.96984732567645       1.461330191747313        8.040569334518267        # O
229  229  1    136.0477376745031        1.461330191747313        8.040569334518267        # O
230  230  1    146.12504620271602       1.461330191747313        8.040569334518267        # O
231  231  1    156.20293649420915       1.461330191747313        8.040569334518267        # O
232  232  1    5.0386542354396875       1.461330191747313        8.040569334518267        # O
233  233  1    15.116544584266347       1.461330191747313        8.040569334518267        # O
234  234  1    25.193853112479246       1.461330191747313        8.040569334518267        # O
235  235  1    35.2717434613059         1.461330191747313        8.040569334518267        # O
236  236  1    45.34905193218528        1.461330191747313        8.040569334518267        # O
237  237  1    55.42694228101194        1.461330191747313        8.040569334518267        # O
238  238  1    65.50425080922484        1.461330191747313        8.040569334518267        # O
239  239  1    75.58214115805148        1.461330191747313        8.040569334518267        # O
240  240  1    85.65944962893087        7.306650958736565        8.040569334518267        # O
241  241  1    95.73733997775753        7.306650958736565        8.040569334518267        # O
242  242  1    105.81464850597042       7.306650958736565        8.040569334518267        # O
243  243  1    115.89253879746357       7.306650958736565        8.040569334518267        # O
244  244  1    125.96984732567645       7.306650958736565        8.040569334518267        # O
245  245  1    136.0477376745031        7.306650958736565        8.040569334518267        # O
246  246  1    146.12504620271602       7.306650958736565        8.040569334518267        # O
247  247  1    156.20293649420915       7.306650958736565        8.040569334518267        # O
248  248  1    5.0386542354396875       7.306650958736565        8.040569334518267        # O
249  249  1    15.116544584266347       7.306650958736565        8.040569334518267        # O
250  250  1    25.193853112479246       7.306650958736565        8.040569334518267        # O
251  251  1    35.2717434613059         7.306650958736565        8.040569334518267        # O
252  252  1    45.34905193218528        7.306650958736565        8.040569334518267        # O
253  253  1    55.42694228101194        7.306650958736565        8.040569334518267        # O
254  254  1    65.50425080922484        7.306650958736565        8.040569334518267        # O
255  255  1    75.58214115805148        7.306650958736565        8.040569334518267        # O
256  256  1    80.62079539349118        10.229311399564716       8.040569334518267        # O
257  257  1    90.69868574231783        10.229311399564716       8.040569334518267        # O
258  258  1    100.77599421319721       10.229311399564716       8.040569334518267        # O
259  259  1    110.85388456202388       10.229311399564716       8.040569334518267        # O
260  260  1    120.93119309023676       10.229311399564716       8.040569334518267        # O
261  261  1    131.00908343906343       10.229311399564716       8.040569334518267        # O
262  262  1    141.0863919099428        10.229311399564716       8.040569334518267        # O
263  263  1    151.16428225876945       10.229311399564716       8.040569334518267        # O
264  264  1    161.24159078698236       10.229311399564716       8.040569334518267        # O
265  265  1    10.077890348826658       10.229311399564716       8.040569334518267        # O
266  266  1    20.155198819706033       10.229311399564716       8.040569334518267        # O
267  267  1    30.233089168532693       10.229311399564716       8.040569334518267        # O
268  268  1    40.31039769674559        10.229311399564716       8.040569334518267        # O
269  269  1    50.38828804557225        10.229311399564716       8.040569334518267        # O
270  270  1    60.46559651645162        10.229311399564716       8.040569334518267        # O
271  271  1    70.54348686527828        10.229311399564716       8.040569334518267        # O
272  272  1    90.69868574231783        16.074632166553965       8.040569334518267        # O
273  273  1    100.77599421319721       16.074632166553965       8.040569334518267        # O
274  274  1    110.85388456202388       16.074632166553965       8.040569334518267        # O
275  275  1    120.93119309023676       16.074632166553965       8.040569334518267        # O
276  276  1    131.00908343906343       16.074632166553965       8.040569334518267        # O
277  277  1    141.0863919099428        16.074632166553965       8.040569334518267        # O
278  278  1    151.16428225876945       16.074632166553965       8.040569334518267        # O
279  279  1    161.24159078698236       16.074632166553965       8.040569334518267        # O
280  280  1    10.077890348826658       16.074632166553965       8.040569334518267        # O
281  281  1    20.155198819706033       16.074632166553965       8.040569334518267        # O
282  282  1    30.233089168532693       16.074632166553965       8.040569334518267        # O
283  283  1    40.31039769674559        16.074632166553965       8.040569334518267        # O
284  284  1    50.38828804557225        16.074632166553965       8.040569334518267        # O
285  285  1    60.46559651645162        16.074632166553965       8.040569334518267        # O
286  286  1    70.54348686527828        16.074632166553965       8.040569334518267        # O
287  287  1    80.62079539349118        16.074632166553965       8.040569334518267        # O
288  288  1    85.65944962893087        18.997292550048595       8.040569334518267        # O
289  289  1    95.73733997775753        18.997292550048595       8.040569334518267        # O
290  290  1    105.81464850597042       18.997292550048595       8.040569334518267        # O
291  291  1    115.89253879746357       18.997292550048595       8.040569334518267        # O
292  292  1    125.96984732567645       18.997292550048595       8.040569334518267        # O
293  293  1    136.0477376745031        18.997292550048595       8.040569334518267        # O
294  294  1    146.12504620271602       18.997292550048595       8.040569334518267        # O
295  295  1    156.20293649420915       18.997292550048595       8.040569334518267        # O
296  296  1    5.0386542354396875       18.997292550048595       8.040569334518267        # O
297  297  1    15.116544584266347       18.997292550048595       8.040569334518267        # O
298  298  1    25.193853112479246       18.997292550048595       8.040569334518267        # O
299  299  1    35.2717434613059         18.997292550048595       8.040569334518267        # O
300  300  1    45.34905193218528        18.997292550048595       8.040569334518267        # O
301  301  1    55.42694228101194        18.997292550048595       8.040569334518267        # O
302  302  1    65.50425080922484        18.997292550048595       8.040569334518267        # O
303  303  1    75.58214115805148        18.997292550048595       8.040569334518267        # O
304  304  1    85.65944962893087        24.84261337437137        8.040569334518267        # O
305  305  1    95.73733997775753        24.84261337437137        8.040569334518267        # O
306  306  1    105.81464850597042       24.84261337437137        8.040569334518267        # O
307  307  1    115.89253879746357       24.84261337437137        8.040569334518267        # O
308  308  1    125.96984732567645       24.84261337437137        8.040569334518267        # O
309  309  1    136.0477376745031        24.84261337437137        8.040569334518267        # O
310  310  1    146.12504620271602       24.84261337437137        8.040569334518267        # O
311  311  1    156.20293649420915       24.84261337437137        8.040569334518267        # O
312  312  1    5.0386542354396875       24.84261337437137        8.040569334518267        # O
313  313  1    15.116544584266347       24.84261337437137        8.040569334518267        # O
314  314  1    25.193853112479246       24.84261337437137        8.040569334518267        # O