DATA FILE Produced from netmc results (cf David Morley)
3225 atoms
7740 bonds
0 angles
0 dihedrals
0 impropers
2 atom types
2 bond types
0 angle types
0 dihedral types
0 improper types
0.00000 252.2023507618316 xlo xhi
0.00000 218.41364263833512 ylo yhi

# Pair Coeffs
#
# 1  O
# 2  Si

# Bond Coeffs
# 
# 1  O-O
# 2  Si-O
# 3  O-O rep
# 4  Si-Si rep

 Masses

1 28.10000 # O 
2 32.01000 # Si

 Atoms # molecular

1    1    2    150.35147131238088       116.20725858321676       5.0                      # Si
2    2    2    160.05127718544747       116.20725858321676       5.0                      # Si
3    3    2    169.75164309349518       116.20725858321676       5.0                      # Si
4    4    2    179.45144896656177       116.20725858321676       5.0                      # Si
5    5    2    189.15181487460944       116.20725858321676       5.0                      # Si
6    6    2    198.851620747676         116.20725858321676       5.0                      # Si
7    7    2    208.55198665572374       116.20725858321676       5.0                      # Si
8    8    2    218.2517925287903        116.20725858321676       5.0                      # Si
9    9    2    227.952158436838         116.20725858321676       5.0                      # Si
10   10   2    237.65196430990454       116.20725858321676       5.0                      # Si
11   11   2    247.35233021795224       116.20725858321676       5.0                      # Si
12   12   2    4.8499029365332875       116.20725858321676       5.0                      # Si
13   13   2    14.550268844580984       116.20725858321676       5.0                      # Si
14   14   2    24.250074717647557       116.20725858321676       5.0                      # Si
15   15   2    33.95044062569526        116.20725858321676       5.0                      # Si
16   16   2    43.65024649876183        116.20725858321676       5.0                      # Si
17   17   2    53.35061240680954        116.20725858321676       5.0                      # Si
18   18   2    63.0504182798761         116.20725858321676       5.0                      # Si
19   19   2    72.7507841879238         116.20725858321676       5.0                      # Si
20   20   2    82.45059006099038        116.20725858321676       5.0                      # Si
21   21   2    155.2013742489142        119.00743348883644       5.0                      # Si
22   22   2    164.90174015696186       119.00743348883644       5.0                      # Si
23   23   2    174.60154603002846       119.00743348883644       5.0                      # Si
24   24   2    184.30191193807616       119.00743348883644       5.0                      # Si
25   25   2    194.00171781114273       119.00743348883644       5.0                      # Si
26   26   2    203.7020837191904        119.00743348883644       5.0                      # Si
27   27   2    213.40188959225702       119.00743348883644       5.0                      # Si
28   28   2    223.10225550030472       119.00743348883644       5.0                      # Si
29   29   2    232.8020613733713        119.00743348883644       5.0                      # Si
30   30   2    242.50242728141896       119.00743348883644       5.0                      # Si
31   31   2    252.20223315448553       119.00743348883644       5.0                      # Si
32   32   2    9.700365908047699        119.00743348883644       5.0                      # Si
33   33   2    19.400171781114274       119.00743348883644       5.0                      # Si
34   34   2    29.100537689161968       119.00743348883644       5.0                      # Si
35   35   2    38.80034356222855        119.00743348883644       5.0                      # Si
36   36   2    48.50070947027624        119.00743348883644       5.0                      # Si
37   37   2    58.20051534334282        119.00743348883644       5.0                      # Si
38   38   2    67.90088125139052        119.00743348883644       5.0                      # Si
39   39   2    77.6006871244571         119.00743348883644       5.0                      # Si
40   40   2    155.2013742489142        124.6077833000758        5.0                      # Si
41   41   2    164.90174015696186       124.6077833000758        5.0                      # Si
42   42   2    174.60154603002846       124.6077833000758        5.0                      # Si
43   43   2    184.30191193807616       124.6077833000758        5.0                      # Si
44   44   2    194.00171781114273       124.6077833000758        5.0                      # Si
45   45   2    203.7020837191904        124.6077833000758        5.0                      # Si
46   46   2    213.40188959225702       124.6077833000758        5.0                      # Si
47   47   2    223.10225550030472       124.6077833000758        5.0                      # Si
48   48   2    232.8020613733713        124.6077833000758        5.0                      # Si
49   49   2    242.50242728141896       124.6077833000758        5.0                      # Si
50   50   2    252.20223315448553       124.6077833000758        5.0                      # Si
51   51   2    9.700365908047699        124.6077833000758        5.0                      # Si
52   52   2    19.400171781114274       124.6077833000758        5.0                      # Si
53   53   2    29.100537689161968       124.6077833000758        5.0                      # Si
54   54   2    38.80034356222855        124.6077833000758        5.0                      # Si
55   55   2    48.50070947027624        124.6077833000758        5.0                      # Si
56   56   2    58.20051534334282        124.6077833000758        5.0                      # Si
57   57   2    67.90088125139052        124.6077833000758        5.0                      # Si
58   58   2    77.6006871244571         124.6077833000758        5.0                      # Si
59   59   2    150.35147131238088       127.40795820569548       5.0                      # Si
60   60   2    160.05127718544747       127.40795820569548       5.0                      # Si
61   61   2    169.75164309349518       127.40795820569548       5.0                      # Si
62   62   2    179.45144896656177       127.40795820569548       5.0                      # Si
63   63   2    189.15181487460944       127.40795820569548       5.0                      # Si
64   64   2    198.851620747676         127.40795820569548       5.0                      # Si
65   65   2    208.55198665572374       127.40795820569548       5.0                      # Si
66   66   2    218.2517925287903        127.40795820569548       5.0                      # Si
67   67   2    227.952158436838         127.40795820569548       5.0                      # Si
68   68   2    237.65196430990454       127.40795820569548       5.0                      # Si
69   69   2    247.35233021795224       127.40795820569548       5.0                      # Si
70   70   2    4.8499029365332875       127.40795820569548       5.0                      # Si
71   71   2    14.550268844580984       127.40795820569548       5.0                      # Si
72   72   2    24.250074717647557       127.40795820569548       5.0                      # Si
73   73   2    33.95044062569526        127.40795820569548       5.0                      # Si
74   74   2    43.65024649876183        127.40795820569548       5.0                      # Si
75   75   2    53.35061240680954        127.40795820569548       5.0                      # Si
76   76   2    63.0504182798761         127.40795820569548       5.0                      # Si
77   77   2    72.7507841879238         127.40795820569548       5.0                      # Si
78   78   2    82.45059006099038        127.40795820569548       5.0                      # Si
79   79   2    150.35147131238088       133.00830801693485       5.0                      # Si
80   80   2    160.05127718544747       133.00830801693485       5.0                      # Si
81   81   2    169.75164309349518       133.00830801693485       5.0                      # Si
82   82   2    179.45144896656177       133.00830801693485       5.0                      # Si
83   83   2    189.15181487460944       133.00830801693485       5.0                      # Si
84   84   2    198.851620747676         133.00830801693485       5.0                      # Si
85   85   2    208.55198665572374       133.00830801693485       5.0                      # Si
86   86   2    218.2517925287903        133.00830801693485       5.0                      # Si
87   87   2    227.952158436838         133.00830801693485       5.0                      # Si
88   88   2    237.65196430990454       133.00830801693485       5.0                      # Si
89   89   2    247.35233021795224       133.00830801693485       5.0                      # Si
90   90   2    4.8499029365332875       133.00830801693485       5.0                      # Si
91   91   2    14.550268844580984       133.00830801693485       5.0                      # Si
92   92   2    24.250074717647557       133.00830801693485       5.0                      # Si
93   93   2    33.95044062569526        133.00830801693485       5.0                      # Si
94   94   2    43.65024649876183        133.00830801693485       5.0                      # Si
95   95   2    53.35061240680954        133.00830801693485       5.0                      # Si
96   96   2    63.0504182798761         133.00830801693485       5.0                      # Si
97   97   2    72.7507841879238         133.00830801693485       5.0                      # Si
98   98   2    82.45059006099038        133.00830801693485       5.0                      # Si
99   99   2    155.2013742489142        135.8084829225545        5.0                      # Si
100  100  2    164.90174015696186       135.8084829225545        5.0                      # Si
101  101  2    174.60154603002846       135.8084829225545        5.0                      # Si
102  102  2    184.30191193807616       135.8084829225545        5.0                      # Si
103  103  2    194.00171781114273       135.8084829225545        5.0                      # Si
104  104  2    203.7020837191904        135.8084829225545        5.0                      # Si
105  105  2    213.40188959225702       135.8084829225545        5.0                      # Si
106  106  2    223.10225550030472       135.8084829225545        5.0                      # Si
107  107  2    232.8020613733713        135.8084829225545        5.0                      # Si
108  108  2    242.50242728141896       135.8084829225545        5.0                      # Si
109  109  2    252.20223315448553       135.8084829225545        5.0                      # Si
110  110  2    9.700365908047699        135.8084829225545        5.0                      # Si
111  111  2    19.400171781114274       135.8084829225545        5.0                      # Si
112  112  2    29.100537689161968       135.8084829225545        5.0                      # Si
113  113  2    38.80034356222855        135.8084829225545        5.0                      # Si
114  114  2    48.50070947027624        135.8084829225545        5.0                      # Si
115  115  2    58.20051534334282        135.8084829225545        5.0                      # Si
116  116  2    67.90088125139052        135.8084829225545        5.0                      # Si
117  117  2    77.6006871244571         135.8084829225545        5.0                      # Si
118  118  2    145.5015683758476        141.40883273379387       5.0                      # Si
119  119  2    155.2013742489142        141.40883273379387       5.0                      # Si
120  120  2    164.90174015696186       141.40883273379387       5.0                      # Si
121  121  2    174.60154603002846       141.40883273379387       5.0                      # Si
122  122  2    184.30191193807616       141.40883273379387       5.0                      # Si
123  123  2    194.00171781114273       141.40883273379387       5.0                      # Si
124  124  2    203.7020837191904        141.40883273379387       5.0                      # Si
125  125  2    213.40188959225702       141.40883273379387       5.0                      # Si
126  126  2    223.10225550030472       141.40883273379387       5.0                      # Si
127  127  2    232.8020613733713        141.40883273379387       5.0                      # Si
128  128  2    242.50242728141896       141.40883273379387       5.0                      # Si
129  129  2    252.20223315448553       141.40883273379387       5.0                      # Si
130  130  2    9.700365908047699        141.40883273379387       5.0                      # Si
131  131  2    19.400171781114274       141.40883273379387       5.0                      # Si
132  132  2    29.100537689161968       141.40883273379387       5.0                      # Si
133  133  2    38.80034356222855        141.40883273379387       5.0                      # Si
134  134  2    48.50070947027624        141.40883273379387       5.0                      # Si
135  135  2    58.20051534334282        141.40883273379387       5.0                      # Si
136  136  2    67.90088125139052        141.40883273379387       5.0                      # Si
137  137  2    77.6006871244571         141.40883273379387       5.0                      # Si
138  138  2    87.30105303250478        141.40883273379387       5.0                      # Si
139  139  2    130.9512995312666        144.20900763941356       5.0                      # Si
140  140  2    140.6511054043332        144.20900763941356       5.0                      # Si
141  141  2    150.35147131238088       144.20900763941356       5.0                      # Si
142  142  2    160.05127718544747       144.20900763941356       5.0                      # Si
143  143  2    169.75164309349518       144.20900763941356       5.0                      # Si
144  144  2    179.45144896656177       144.20900763941356       5.0                      # Si
145  145  2    189.15181487460944       144.20900763941356       5.0                      # Si
146  146  2    198.851620747676         144.20900763941356       5.0                      # Si
147  147  2    208.55198665572374       144.20900763941356       5.0                      # Si
148  148  2    218.2517925287903        144.20900763941356       5.0                      # Si
149  149  2    227.952158436838         144.20900763941356       5.0                      # Si
150  150  2    237.65196430990454       144.20900763941356       5.0                      # Si
151  151  2    247.35233021795224       144.20900763941356       5.0                      # Si
152  152  2    4.8499029365332875       144.20900763941356       5.0                      # Si
153  153  2    14.550268844580984       144.20900763941356       5.0                      # Si
154  154  2    24.250074717647557       144.20900763941356       5.0                      # Si
155  155  2    33.95044062569526        144.20900763941356       5.0                      # Si
156  156  2    43.65024649876183        144.20900763941356       5.0                      # Si
157  157  2    53.35061240680954        144.20900763941356       5.0                      # Si
158  158  2    63.0504182798761         144.20900763941356       5.0                      # Si
159  159  2    72.7507841879238         144.20900763941356       5.0                      # Si
160  160  2    82.45059006099038        144.20900763941356       5.0                      # Si
161  161  2    92.15095596903808        144.20900763941356       5.0                      # Si
162  162  2    101.85076184210465       144.20900763941356       5.0                      # Si
163  163  2    111.55112775015236       144.20900763941356       5.0                      # Si
164  164  2    121.25093362321891       144.20900763941356       5.0                      # Si
165  165  2    130.9512995312666        149.80935745065293       5.0                      # Si
166  166  2    140.6511054043332        149.80935745065293       5.0                      # Si
167  167  2    150.35147131238088       149.80935745065293       5.0                      # Si
168  168  2    160.05127718544747       149.80935745065293       5.0                      # Si
169  169  2    169.75164309349518       149.80935745065293       5.0                      # Si
170  170  2    179.45144896656177       149.80935745065293       5.0                      # Si
171  171  2    189.15181487460944       149.80935745065293       5.0                      # Si
172  172  2    198.851620747676         149.80935745065293       5.0                      # Si
173  173  2    208.55198665572374       149.80935745065293       5.0                      # Si
174  174  2    218.2517925287903        149.80935745065293       5.0                      # Si
175  175  2    227.952158436838         149.80935745065293       5.0                      # Si
176  176  2    237.65196430990454       149.80935745065293       5.0                      # Si
177  177  2    247.35233021795224       149.80935745065293       5.0                      # Si
178  178  2    4.8499029365332875       149.80935745065293       5.0                      # Si
179  179  2    14.550268844580984       149.80935745065293       5.0                      # Si
180  180  2    24.250074717647557       149.80935745065293       5.0                      # Si
181  181  2    33.95044062569526        149.80935745065293       5.0                      # Si
182  182  2    43.65024649876183        149.80935745065293       5.0                      # Si
183  183  2    53.35061240680954        149.80935745065293       5.0                      # Si
184  184  2    63.0504182798761         149.80935745065293       5.0                      # Si
185  185  2    72.7507841879238         149.80935745065293       5.0                      # Si
186  186  2    82.45059006099038        149.80935745065293       5.0                      # Si
187  187  2    92.15095596903808        149.80935745065293       5.0                      # Si
188  188  2    101.85076184210465       149.80935745065293       5.0                      # Si
189  189  2    111.55112775015236       149.80935745065293       5.0                      # Si
190  190  2    121.25093362321891       149.80935745065293       5.0                      # Si
191  191  2    126.10139659473333       152.6095323562726        5.0                      # Si
192  192  2    135.8012024677999        152.6095323562726        5.0                      # Si
193  193  2    145.5015683758476        152.6095323562726        5.0                      # Si
194  194  2    155.2013742489142        152.6095323562726        5.0                      # Si
195  195  2    164.90174015696186       152.6095323562726        5.0                      # Si
196  196  2    174.60154603002846       152.6095323562726        5.0                      # Si
197  197  2    184.30191193807616       152.6095323562726        5.0                      # Si
198  198  2    194.00171781114273       152.6095323562726        5.0                      # Si
199  199  2    203.7020837191904        152.6095323562726        5.0                      # Si
200  200  2    213.40188959225702       152.6095323562726        5.0                      # Si
201  201  2    223.10225550030472       152.6095323562726        5.0                      # Si
202  202  2    232.8020613733713        152.6095323562726        5.0                      # Si
203  203  2    242.50242728141896       152.6095323562726        5.0                      # Si
204  204  2    252.20223315448553       152.6095323562726        5.0                      # Si
205  205  2    9.700365908047699        152.6095323562726        5.0                      # Si
206  206  2    19.400171781114274       152.6095323562726        5.0                      # Si
207  207  2    29.100537689161968       152.6095323562726        5.0                      # Si
208  208  2    38.80034356222855        152.6095323562726        5.0                      # Si
209  209  2    48.50070947027624        152.6095323562726        5.0                      # Si
210  210  2    58.20051534334282        152.6095323562726        5.0                      # Si
211  211  2    67.90088125139052        152.6095323562726        5.0                      # Si
212  212  2    77.6006871244571         152.6095323562726        5.0                      # Si
213  213  2    87.30105303250478        152.6095323562726        5.0                      # Si
214  214  2    97.00085890557136        152.6095323562726        5.0                      # Si
215  215  2    106.70122481361908       152.6095323562726        5.0                      # Si
216  216  2    116.40103068668564       152.6095323562726        5.0                      # Si
217  217  2    135.8012024677999        158.20988216751198       5.0                      # Si
218  218  2    145.5015683758476        158.20988216751198       5.0                      # Si
219  219  2    155.2013742489142        158.20988216751198       5.0                      # Si
220  220  2    164.90174015696186       158.20988216751198       5.0                      # Si
221  221  2    174.60154603002846       158.20988216751198       5.0                      # Si
222  222  2    184.30191193807616       158.20988216751198       5.0                      # Si
223  223  2    194.00171781114273       158.20988216751198       5.0                      # Si
224  224  2    203.7020837191904        158.20988216751198       5.0                      # Si
225  225  2    213.40188959225702       158.20988216751198       5.0                      # Si
226  226  2    223.10225550030472       158.20988216751198       5.0                      # Si
227  227  2    232.8020613733713        158.20988216751198       5.0                      # Si
228  228  2    242.50242728141896       158.20988216751198       5.0                      # Si
229  229  2    252.20223315448553       158.20988216751198       5.0                      # Si
230  230  2    9.700365908047699        158.20988216751198       5.0                      # Si
231  231  2    19.400171781114274       158.20988216751198       5.0                      # Si
232  232  2    29.100537689161968       158.20988216751198       5.0                      # Si
233  233  2    38.80034356222855        158.20988216751198       5.0                      # Si
234  234  2    48.50070947027624        158.20988216751198       5.0                      # Si
235  235  2    58.20051534334282        158.20988216751198       5.0                      # Si
236  236  2    67.90088125139052        158.20988216751198       5.0                      # Si
237  237  2    77.6006871244571         158.20988216751198       5.0                      # Si
238  238  2    87.30105303250478        158.20988216751198       5.0                      # Si
239  239  2    97.00085890557136        158.20988216751198       5.0                      # Si
240  240  2    106.70122481361908       158.20988216751198       5.0                      # Si
241  241  2    116.40103068668564       158.20988216751198       5.0                      # Si
242  242  2    126.10139659473333       158.20988216751198       5.0                      # Si
243  243  2    130.9512995312666        161.01005707313163       5.0                      # Si
244  244  2    140.6511054043332        161.01005707313163       5.0                      # Si
245  245  2    150.35147131238088       161.01005707313163       5.0                      # Si
246  246  2    160.05127718544747       161.01005707313163       5.0                      # Si
247  247  2    169.75164309349518       161.01005707313163       5.0                      # Si
248  248  2    179.45144896656177       161.01005707313163       5.0                      # Si
249  249  2    189.15181487460944       161.01005707313163       5.0                      # Si
250  250  2    198.851620747676         161.01005707313163       5.0                      # Si
251  251  2    208.55198665572374       161.01005707313163       5.0                      # Si
252  252  2    218.2517925287903        161.01005707313163       5.0                      # Si
253  253  2    227.952158436838         161.01005707313163       5.0                      # Si
254  254  2    237.65196430990454       161.01005707313163       5.0                      # Si
255  255  2    247.35233021795224       161.01005707313163       5.0                      # Si
256  256  2    4.8499029365332875       161.01005707313163       5.0                      # Si
257  257  2    14.550268844580984       161.01005707313163       5.0                      # Si
258  258  2    24.250074717647557       161.01005707313163       5.0                      # Si
259  259  2    33.95044062569526        161.01005707313163       5.0                      # Si
260  260  2    43.65024649876183        161.01005707313163       5.0                      # Si
261  261  2    53.35061240680954        161.01005707313163       5.0                      # Si
262  262  2    63.0504182798761         161.01005707313163       5.0                      # Si
263  263  2    72.7507841879238         161.01005707313163       5.0                      # Si
264  264  2    82.45059006099038        161.01005707313163       5.0                      # Si
265  265  2    92.15095596903808        161.01005707313163       5.0                      # Si
266  266  2    101.85076184210465       161.01005707313163       5.0                      # Si
267  267  2    111.55112775015236       161.01005707313163       5.0                      # Si
268  268  2    121.25093362321891       161.01005707313163       5.0                      # Si
269  269  2    130.9512995312666        166.610406884371         5.0                      # Si
270  270  2    140.6511054043332        166.610406884371         5.0                      # Si
271  271  2    150.35147131238088       166.610406884371         5.0                      # Si
272  272  2    160.05127718544747       166.610406884371         5.0                      # Si
273  273  2    169.75164309349518       166.610406884371         5.0                      # Si
274  274  2    179.45144896656177       166.610406884371         5.0                      # Si
275  275  2    189.15181487460944       166.610406884371         5.0                      # Si
276  276  2    198.851620747676         166.610406884371         5.0                      # Si
277  277  2    208.55198665572374       166.610406884371         5.0                      # Si
278  278  2    218.2517925287903        166.610406884371         5.0                      # Si
279  279  2    227.952158436838         166.610406884371         5.0                      # Si
280  280  2    237.65196430990454       166.610406884371         5.0                      # Si
281  281  2    247.35233021795224       166.610406884371         5.0                      # Si
282  282  2    4.8499029365332875       166.610406884371         5.0                      # Si
283  283  2    14.550268844580984       166.610406884371         5.0                      # Si
284  284  2    24.250074717647557       166.610406884371         5.0                      # Si
285  285  2    33.95044062569526        166.610406884371         5.0                      # Si
286  286  2    43.65024649876183        166.610406884371         5.0                      # Si
287  287  2    53.35061240680954        166.610406884371         5.0                      # Si
288  288  2    63.0504182798761         166.610406884371         5.0                      # Si
289  289  2    72.7507841879238         166.610406884371         5.0                      # Si
290  290  2    82.45059006099038        166.610406884371         5.0                      # Si
291  291  2    92.15095596903808        166.610406884371         5.0                      # Si
292  292  2    101.85076184210465       166.610406884371         5.0                      # Si
293  293  2    111.55112775015236       166.610406884371         5.0                      # Si
294  294  2    121.25093362321891       166.610406884371         5.0                      # Si
295  295  2    126.10139659473333       169.4105817899907        5.0                      # Si
296  296  2    135.8012024677999        169.4105817899907        5.0                      # Si
297  297  2    145.5015683758476        169.4105817899907        5.0                      # Si
298  298  2    155.2013742489142        169.4105817899907        5.0                      # Si
299  299  2    164.90174015696186       169.4105817899907        5.0                      # Si
300  300  2    174.60154603002846       169.4105817899907        5.0                      # Si
301  301  2    184.30191193807616       169.4105817899907        5.0                      # Si
302  302  2    194.00171781114273       169.4105817899907        5.0                      # Si
303  303  2    203.7020837191904        169.4105817899907        5.0                      # Si
304  304  2    213.40188959225702       169.4105817899907        5.0                      # Si
305  305  2    223.10225550030472       169.4105817899907        5.0                      # Si
306  306  2    232.8020613733713        169.4105817899907        5.0                      # Si
307  307  2    242.50242728141896       169.4105817899907        5.0                      # Si
308  308  2    252.20223315448553       169.4105817899907        5.0                      # Si
309  309  2    9.700365908047699        169.4105817899907        5.0                      # Si
310  310  2    19.400171781114274       169.4105817899907        5.0                      # Si
311  311  2    29.100537689161968       169.4105817899907        5.0                      # Si