DATA FILE Produced from netmc results (cf David Morley)
7740 atoms
25800 bonds
0 angles
0 dihedrals
0 impropers
2 atom types
0 bond types
2 bond types
0 angle types
0 dihedral types
0 improper types
0.00000 252.2023507618316 xlo xhi
0.00000 218.41364263833512 ylo yhi
0.0000 200.0000 zlo zhi

# Pair Coeffs
#
# 1  O
# 2  Si

# Bond Coeffs
# 
# 1  O-O
# 2  Si-O
# 3  O-O rep
# 4  Si-Si rep

 Masses

1 28.10000 # O 
2 32.01000 # Si

 Atoms # molecular

1    1    2    150.35147131238088       116.20725858321676       5.0                      # Si
2    2    2    150.35147131238088       116.20725858321676       11.081138669036534       # Si
3    3    2    160.05127718544747       116.20725858321676       5.0                      # Si
4    4    2    160.05127718544747       116.20725858321676       11.081138669036534       # Si
5    5    2    169.75164309349518       116.20725858321676       5.0                      # Si
6    6    2    169.75164309349518       116.20725858321676       11.081138669036534       # Si
7    7    2    179.45144896656177       116.20725858321676       5.0                      # Si
8    8    2    179.45144896656177       116.20725858321676       11.081138669036534       # Si
9    9    2    189.15181487460944       116.20725858321676       5.0                      # Si
10   10   2    189.15181487460944       116.20725858321676       11.081138669036534       # Si
11   11   2    198.851620747676         116.20725858321676       5.0                      # Si
12   12   2    198.851620747676         116.20725858321676       11.081138669036534       # Si
13   13   2    208.55198665572374       116.20725858321676       5.0                      # Si
14   14   2    208.55198665572374       116.20725858321676       11.081138669036534       # Si
15   15   2    218.2517925287903        116.20725858321676       5.0                      # Si
16   16   2    218.2517925287903        116.20725858321676       11.081138669036534       # Si
17   17   2    227.952158436838         116.20725858321676       5.0                      # Si
18   18   2    227.952158436838         116.20725858321676       11.081138669036534       # Si
19   19   2    237.65196430990454       116.20725858321676       5.0                      # Si
20   20   2    237.65196430990454       116.20725858321676       11.081138669036534       # Si
21   21   2    247.35233021795224       116.20725858321676       5.0                      # Si
22   22   2    247.35233021795224       116.20725858321676       11.081138669036534       # Si
23   23   2    4.8499029365332875       116.20725858321676       5.0                      # Si
24   24   2    4.8499029365332875       116.20725858321676       11.081138669036534       # Si
25   25   2    14.550268844580984       116.20725858321676       5.0                      # Si
26   26   2    14.550268844580984       116.20725858321676       11.081138669036534       # Si
27   27   2    24.250074717647557       116.20725858321676       5.0                      # Si
28   28   2    24.250074717647557       116.20725858321676       11.081138669036534       # Si
29   29   2    33.95044062569526        116.20725858321676       5.0                      # Si
30   30   2    33.95044062569526        116.20725858321676       11.081138669036534       # Si
31   31   2    43.65024649876183        116.20725858321676       5.0                      # Si
32   32   2    43.65024649876183        116.20725858321676       11.081138669036534       # Si
33   33   2    53.35061240680954        116.20725858321676       5.0                      # Si
34   34   2    53.35061240680954        116.20725858321676       11.081138669036534       # Si
35   35   2    63.0504182798761         116.20725858321676       5.0                      # Si
36   36   2    63.0504182798761         116.20725858321676       11.081138669036534       # Si
37   37   2    72.7507841879238         116.20725858321676       5.0                      # Si
38   38   2    72.7507841879238         116.20725858321676       11.081138669036534       # Si
39   39   2    82.45059006099038        116.20725858321676       5.0                      # Si
40   40   2    82.45059006099038        116.20725858321676       11.081138669036534       # Si
41   41   2    155.2013742489142        119.00743348883644       5.0                      # Si
42   42   2    155.2013742489142        119.00743348883644       11.081138669036534       # Si
43   43   2    164.90174015696186       119.00743348883644       5.0                      # Si
44   44   2    164.90174015696186       119.00743348883644       11.081138669036534       # Si
45   45   2    174.60154603002846       119.00743348883644       5.0                      # Si
46   46   2    174.60154603002846       119.00743348883644       11.081138669036534       # Si
47   47   2    184.30191193807616       119.00743348883644       5.0                      # Si
48   48   2    184.30191193807616       119.00743348883644       11.081138669036534       # Si
49   49   2    194.00171781114273       119.00743348883644       5.0                      # Si
50   50   2    194.00171781114273       119.00743348883644       11.081138669036534       # Si
51   51   2    203.7020837191904        119.00743348883644       5.0                      # Si
52   52   2    203.7020837191904        119.00743348883644       11.081138669036534       # Si
53   53   2    213.40188959225702       119.00743348883644       5.0                      # Si
54   54   2    213.40188959225702       119.00743348883644       11.081138669036534       # Si
55   55   2    223.10225550030472       119.00743348883644       5.0                      # Si
56   56   2    223.10225550030472       119.00743348883644       11.081138669036534       # Si
57   57   2    232.8020613733713        119.00743348883644       5.0                      # Si
58   58   2    232.8020613733713        119.00743348883644       11.081138669036534       # Si
59   59   2    242.50242728141896       119.00743348883644       5.0                      # Si
60   60   2    242.50242728141896       119.00743348883644       11.081138669036534       # Si
61   61   2    252.20223315448553       119.00743348883644       5.0                      # Si
62   62   2    252.20223315448553       119.00743348883644       11.081138669036534       # Si
63   63   2    9.700365908047699        119.00743348883644       5.0                      # Si
64   64   2    9.700365908047699        119.00743348883644       11.081138669036534       # Si
65   65   2    19.400171781114274       119.00743348883644       5.0                      # Si
66   66   2    19.400171781114274       119.00743348883644       11.081138669036534       # Si
67   67   2    29.100537689161968       119.00743348883644       5.0                      # Si
68   68   2    29.100537689161968       119.00743348883644       11.081138669036534       # Si
69   69   2    38.80034356222855        119.00743348883644       5.0                      # Si
70   70   2    38.80034356222855        119.00743348883644       11.081138669036534       # Si
71   71   2    48.50070947027624        119.00743348883644       5.0                      # Si
72   72   2    48.50070947027624        119.00743348883644       11.081138669036534       # Si
73   73   2    58.20051534334282        119.00743348883644       5.0                      # Si
74   74   2    58.20051534334282        119.00743348883644       11.081138669036534       # Si
75   75   2    67.90088125139052        119.00743348883644       5.0                      # Si
76   76   2    67.90088125139052        119.00743348883644       11.081138669036534       # Si
77   77   2    77.6006871244571         119.00743348883644       5.0                      # Si
78   78   2    77.6006871244571         119.00743348883644       11.081138669036534       # Si
79   79   2    155.2013742489142        124.6077833000758        5.0                      # Si
80   80   2    155.2013742489142        124.6077833000758        11.081138669036534       # Si
81   81   2    164.90174015696186       124.6077833000758        5.0                      # Si
82   82   2    164.90174015696186       124.6077833000758        11.081138669036534       # Si
83   83   2    174.60154603002846       124.6077833000758        5.0                      # Si
84   84   2    174.60154603002846       124.6077833000758        11.081138669036534       # Si
85   85   2    184.30191193807616       124.6077833000758        5.0                      # Si
86   86   2    184.30191193807616       124.6077833000758        11.081138669036534       # Si
87   87   2    194.00171781114273       124.6077833000758        5.0                      # Si
88   88   2    194.00171781114273       124.6077833000758        11.081138669036534       # Si
89   89   2    203.7020837191904        124.6077833000758        5.0                      # Si
90   90   2    203.7020837191904        124.6077833000758        11.081138669036534       # Si
91   91   2    213.40188959225702       124.6077833000758        5.0                      # Si
92   92   2    213.40188959225702       124.6077833000758        11.081138669036534       # Si
93   93   2    223.10225550030472       124.6077833000758        5.0                      # Si
94   94   2    223.10225550030472       124.6077833000758        11.081138669036534       # Si
95   95   2    232.8020613733713        124.6077833000758        5.0                      # Si
96   96   2    232.8020613733713        124.6077833000758        11.081138669036534       # Si
97   97   2    242.50242728141896       124.6077833000758        5.0                      # Si
98   98   2    242.50242728141896       124.6077833000758        11.081138669036534       # Si
99   99   2    252.20223315448553       124.6077833000758        5.0                      # Si
100  100  2    252.20223315448553       124.6077833000758        11.081138669036534       # Si
101  101  2    9.700365908047699        124.6077833000758        5.0                      # Si
102  102  2    9.700365908047699        124.6077833000758        11.081138669036534       # Si
103  103  2    19.400171781114274       124.6077833000758        5.0                      # Si
104  104  2    19.400171781114274       124.6077833000758        11.081138669036534       # Si
105  105  2    29.100537689161968       124.6077833000758        5.0                      # Si
106  106  2    29.100537689161968       124.6077833000758        11.081138669036534       # Si
107  107  2    38.80034356222855        124.6077833000758        5.0                      # Si
108  108  2    38.80034356222855        124.6077833000758        11.081138669036534       # Si
109  109  2    48.50070947027624        124.6077833000758        5.0                      # Si
110  110  2    48.50070947027624        124.6077833000758        11.081138669036534       # Si
111  111  2    58.20051534334282        124.6077833000758        5.0                      # Si
112  112  2    58.20051534334282        124.6077833000758        11.081138669036534       # Si
113  113  2    67.90088125139052        124.6077833000758        5.0                      # Si
114  114  2    67.90088125139052        124.6077833000758        11.081138669036534       # Si
115  115  2    77.6006871244571         124.6077833000758        5.0                      # Si
116  116  2    77.6006871244571         124.6077833000758        11.081138669036534       # Si
117  117  2    150.35147131238088       127.40795820569548       5.0                      # Si
118  118  2    150.35147131238088       127.40795820569548       11.081138669036534       # Si
119  119  2    160.05127718544747       127.40795820569548       5.0                      # Si
120  120  2    160.05127718544747       127.40795820569548       11.081138669036534       # Si
121  121  2    169.75164309349518       127.40795820569548       5.0                      # Si
122  122  2    169.75164309349518       127.40795820569548       11.081138669036534       # Si
123  123  2    179.45144896656177       127.40795820569548       5.0                      # Si
124  124  2    179.45144896656177       127.40795820569548       11.081138669036534       # Si
125  125  2    189.15181487460944       127.40795820569548       5.0                      # Si
126  126  2    189.15181487460944       127.40795820569548       11.081138669036534       # Si
127  127  2    198.851620747676         127.40795820569548       5.0                      # Si
128  128  2    198.851620747676         127.40795820569548       11.081138669036534       # Si
129  129  2    208.55198665572374       127.40795820569548       5.0                      # Si
130  130  2    208.55198665572374       127.40795820569548       11.081138669036534       # Si
131  131  2    218.2517925287903        127.40795820569548       5.0                      # Si
132  132  2    218.2517925287903        127.40795820569548       11.081138669036534       # Si
133  133  2    227.952158436838         127.40795820569548       5.0                      # Si
134  134  2    227.952158436838         127.40795820569548       11.081138669036534       # Si
135  135  2    237.65196430990454       127.40795820569548       5.0                      # Si
136  136  2    237.65196430990454       127.40795820569548       11.081138669036534       # Si
137  137  2    247.35233021795224       127.40795820569548       5.0                      # Si
138  138  2    247.35233021795224       127.40795820569548       11.081138669036534       # Si
139  139  2    4.8499029365332875       127.40795820569548       5.0                      # Si
140  140  2    4.8499029365332875       127.40795820569548       11.081138669036534       # Si
141  141  2    14.550268844580984       127.40795820569548       5.0                      # Si
142  142  2    14.550268844580984       127.40795820569548       11.081138669036534       # Si
143  143  2    24.250074717647557       127.40795820569548       5.0                      # Si
144  144  2    24.250074717647557       127.40795820569548       11.081138669036534       # Si
145  145  2    33.95044062569526        127.40795820569548       5.0                      # Si
146  146  2    33.95044062569526        127.40795820569548       11.081138669036534       # Si
147  147  2    43.65024649876183        127.40795820569548       5.0                      # Si
148  148  2    43.65024649876183        127.40795820569548       11.081138669036534       # Si
149  149  2    53.35061240680954        127.40795820569548       5.0                      # Si
150  150  2    53.35061240680954        127.40795820569548       11.081138669036534       # Si
151  151  2    63.0504182798761         127.40795820569548       5.0                      # Si
152  152  2    63.0504182798761         127.40795820569548       11.081138669036534       # Si
153  153  2    72.7507841879238         127.40795820569548       5.0                      # Si
154  154  2    72.7507841879238         127.40795820569548       11.081138669036534       # Si
155  155  2    82.45059006099038        127.40795820569548       5.0                      # Si
156  156  2    82.45059006099038        127.40795820569548       11.081138669036534       # Si
157  157  2    150.35147131238088       133.00830801693485       5.0                      # Si
158  158  2    150.35147131238088       133.00830801693485       11.081138669036534       # Si
159  159  2    160.05127718544747       133.00830801693485       5.0                      # Si
160  160  2    160.05127718544747       133.00830801693485       11.081138669036534       # Si
161  161  2    169.75164309349518       133.00830801693485       5.0                      # Si
162  162  2    169.75164309349518       133.00830801693485       11.081138669036534       # Si
163  163  2    179.45144896656177       133.00830801693485       5.0                      # Si
164  164  2    179.45144896656177       133.00830801693485       11.081138669036534       # Si
165  165  2    189.15181487460944       133.00830801693485       5.0                      # Si
166  166  2    189.15181487460944       133.00830801693485       11.081138669036534       # Si
167  167  2    198.851620747676         133.00830801693485       5.0                      # Si
168  168  2    198.851620747676         133.00830801693485       11.081138669036534       # Si
169  169  2    208.55198665572374       133.00830801693485       5.0                      # Si
170  170  2    208.55198665572374       133.00830801693485       11.081138669036534       # Si
171  171  2    218.2517925287903        133.00830801693485       5.0                      # Si
172  172  2    218.2517925287903        133.00830801693485       11.081138669036534       # Si
173  173  2    227.952158436838         133.00830801693485       5.0                      # Si
174  174  2    227.952158436838         133.00830801693485       11.081138669036534       # Si
175  175  2    237.65196430990454       133.00830801693485       5.0                      # Si
176  176  2    237.65196430990454       133.00830801693485       11.081138669036534       # Si
177  177  2    247.35233021795224       133.00830801693485       5.0                      # Si
178  178  2    247.35233021795224       133.00830801693485       11.081138669036534       # Si
179  179  2    4.8499029365332875       133.00830801693485       5.0                      # Si
180  180  2    4.8499029365332875       133.00830801693485       11.081138669036534       # Si
181  181  2    14.550268844580984       133.00830801693485       5.0                      # Si
182  182  2    14.550268844580984       133.00830801693485       11.081138669036534       # Si
183  183  2    24.250074717647557       133.00830801693485       5.0                      # Si
184  184  2    24.250074717647557       133.00830801693485       11.081138669036534       # Si
185  185  2    33.95044062569526        133.00830801693485       5.0                      # Si
186  186  2    33.95044062569526        133.00830801693485       11.081138669036534       # Si
187  187  2    43.65024649876183        133.00830801693485       5.0                      # Si
188  188  2    43.65024649876183        133.00830801693485       11.081138669036534       # Si
189  189  2    53.35061240680954        133.00830801693485       5.0                      # Si
190  190  2    53.35061240680954        133.00830801693485       11.081138669036534       # Si
191  191  2    63.0504182798761         133.00830801693485       5.0                      # Si
192  192  2    63.0504182798761         133.00830801693485       11.081138669036534       # Si
193  193  2    72.7507841879238         133.00830801693485       5.0                      # Si
194  194  2    72.7507841879238         133.00830801693485       11.081138669036534       # Si
195  195  2    82.45059006099038        133.00830801693485       5.0                      # Si
196  196  2    82.45059006099038        133.00830801693485       11.081138669036534       # Si
197  197  2    155.2013742489142        135.8084829225545        5.0                      # Si
198  198  2    155.2013742489142        135.8084829225545        11.081138669036534       # Si
199  199  2    164.90174015696186       135.8084829225545        5.0                      # Si
200  200  2    164.90174015696186       135.8084829225545        11.081138669036534       # Si
201  201  2    174.60154603002846       135.8084829225545        5.0                      # Si
202  202  2    174.60154603002846       135.8084829225545        11.081138669036534       # Si
203  203  2    184.30191193807616       135.8084829225545        5.0                      # Si
204  204  2    184.30191193807616       135.8084829225545        11.081138669036534       # Si
205  205  2    194.00171781114273       135.8084829225545        5.0                      # Si
206  206  2    194.00171781114273       135.8084829225545        11.081138669036534       # Si
207  207  2    203.7020837191904        135.8084829225545        5.0                      # Si
208  208  2    203.7020837191904        135.8084829225545        11.081138669036534       # Si
209  209  2    213.40188959225702       135.8084829225545        5.0                      # Si
210  210  2    213.40188959225702       135.8084829225545        11.081138669036534       # Si
211  211  2    223.10225550030472       135.8084829225545        5.0                      # Si
212  212  2    223.10225550030472       135.8084829225545        11.081138669036534       # Si
213  213  2    232.8020613733713        135.8084829225545        5.0                      # Si
214  214  2    232.8020613733713        135.8084829225545        11.081138669036534       # Si
215  215  2    242.50242728141896       135.8084829225545        5.0                      # Si
216  216  2    242.50242728141896       135.8084829225545        11.081138669036534       # Si
217  217  2    252.20223315448553       135.8084829225545        5.0                      # Si
218  218  2    252.20223315448553       135.8084829225545        11.081138669036534       # Si
219  219  2    9.700365908047699        135.8084829225545        5.0                      # Si
220  220  2    9.700365908047699        135.8084829225545        11.081138669036534       # Si
221  221  2    19.400171781114274       135.8084829225545        5.0                      # Si
222  222  2    19.400171781114274       135.8084829225545        11.081138669036534       # Si
223  223  2    29.100537689161968       135.8084829225545        5.0                      # Si
224  224  2    29.100537689161968       135.8084829225545        11.081138669036534       # Si
225  225  2    38.80034356222855        135.8084829225545        5.0                      # Si
226  226  2    38.80034356222855        135.8084829225545        11.081138669036534       # Si
227  227  2    48.50070947027624        135.8084829225545        5.0                      # Si
228  228  2    48.50070947027624        135.8084829225545        11.081138669036534       # Si
229  229  2    58.20051534334282        135.8084829225545        5.0                      # Si
230  230  2    58.20051534334282        135.8084829225545        11.081138669036534       # Si
231  231  2    67.90088125139052        135.8084829225545        5.0                      # Si
232  232  2    67.90088125139052        135.8084829225545        11.081138669036534       # Si
233  233  2    77.6006871244571         135.8084829225545        5.0                      # Si
234  234  2    77.6006871244571         135.8084829225545        11.081138669036534       # Si
235  235  2    145.5015683758476        141.40883273379387       5.0                      # Si
236  236  2    145.5015683758476        141.40883273379387       11.081138669036534       # Si
237  237  2    155.2013742489142        141.40883273379387       5.0                      # Si
238  238  2    155.2013742489142        141.40883273379387       11.081138669036534       # Si
239  239  2    164.90174015696186       141.40883273379387       5.0                      # Si
240  240  2    164.90174015696186       141.40883273379387       11.081138669036534       # Si
241  241  2    174.60154603002846       141.40883273379387       5.0                      # Si
242  242  2    174.60154603002846       141.40883273379387       11.081138669036534       # Si
243  243  2    184.30191193807616       141.40883273379387       5.0                      # Si
244  244  2    184.30191193807616       141.40883273379387       11.081138669036534       # Si
245  245  2    194.00171781114273       141.40883273379387       5.0                      # Si
246  246  2    194.00171781114273       141.40883273379387       11.081138669036534       # Si
247  247  2    203.7020837191904        141.40883273379387       5.0                      # Si
248  248  2    203.7020837191904        141.40883273379387       11.081138669036534       # Si
249  249  2    213.40188959225702       141.40883273379387       5.0                      # Si
250  250  2    213.40188959225702       141.40883273379387       11.081138669036534       # Si
251  251  2    223.10225550030472       141.40883273379387       5.0                      # Si
252  252  2    223.10225550030472       141.40883273379387       11.081138669036534       # Si
253  253  2    232.8020613733713        141.40883273379387       5.0                      # Si
254  254  2    232.8020613733713        141.40883273379387       11.081138669036534       # Si
255  255  2    242.50242728141896       141.40883273379387       5.0                      # Si
256  256  2    242.50242728141896       141.40883273379387       11.081138669036534       # Si
257  257  2    252.20223315448553       141.40883273379387       5.0                      # Si
258  258  2    252.20223315448553       141.40883273379387       11.081138669036534       # Si
259  259  2    9.700365908047699        141.40883273379387       5.0                      # Si
260  260  2    9.700365908047699        141.40883273379387       11.081138669036534       # Si
261  261  2    19.400171781114274       141.40883273379387       5.0                      # Si
262  262  2    19.400171781114274       141.40883273379387       11.081138669036534       # Si
263  263  2    29.100537689161968       141.40883273379387       5.0                      # Si
264  264  2    29.100537689161968       141.40883273379387       11.081138669036534       # Si
265  265  2    38.80034356222855        141.40883273379387       5.0                      # Si
266  266  2    38.80034356222855        141.40883273379387       11.081138669036534       # Si
267  267  2    48.50070947027624        141.40883273379387       5.0                      # Si
268  268  2    48.50070947027624        141.40883273379387       11.081138669036534       # Si
269  269  2    58.20051534334282        141.40883273379387       5.0                      # Si
270  270  2    58.20051534334282        141.40883273379387       11.081138669036534       # Si
271  271  2    67.90088125139052        141.40883273379387       5.0                      # Si
272  272  2    67.90088125139052        141.40883273379387       11.081138669036534       # Si
273  273  2    77.6006871244571         141.40883273379387       5.0                      # Si
274  274  2    77.6006871244571         141.40883273379387       11.081138669036534       # Si
275  275  2    87.30105303250478        141.40883273379387       5.0                      # Si
276  276  2    87.30105303250478        141.40883273379387       11.081138669036534       # Si
277  277  2    130.9512995312666        144.20900763941356       5.0                      # Si
278  278  2    130.9512995312666        144.20900763941356       11.081138669036534       # Si
279  279  2    140.6511054043332        144.20900763941356       5.0                      # Si
280  280  2    140.6511054043332        144.20900763941356       11.081138669036534       # Si
281  281  2    150.35147131238088       144.20900763941356       5.0                      # Si
282  282  2    150.35147131238088       144.20900763941356       11.081138669036534       # Si
283  283  2    160.05127718544747       144.20900763941356       5.0                      # Si
284  284  2    160.05127718544747       144.20900763941356       11.081138669036534       # Si
285  285  2    169.75164309349518       144.20900763941356       5.0                      # Si
286  286  2    169.75164309349518       144.20900763941356       11.081138669036534       # Si
287  287  2    179.45144896656177       144.20900763941356       5.0                      # Si
288  288  2    179.45144896656177       144.20900763941356       11.081138669036534       # Si
289  289  2    189.15181487460944       144.20900763941356       5.0                      # Si
290  290  2    189.15181487460944       144.20900763941356       11.081138669036534       # Si
291  291  2    198.851620747676         144.20900763941356       5.0                      # Si
292  292  2    198.851620747676         144.20900763941356       11.081138669036534       # Si
293  293  2    208.55198665572374       144.20900763941356       5.0                      # Si
294  294  2    208.55198665572374       144.20900763941356       11.081138669036534       # Si
295  295  2    218.2517925287903        144.20900763941356       5.0                      # Si
296  296  2    218.2517925287903        144.20900763941356       11.081138669036534       # Si
297  297  2    227.952158436838         144.20900763941356       5.0                      # Si
298  298  2    227.952158436838         144.20900763941356       11.081138669036534       # Si
299  299  2    237.65196430990454       144.20900763941356       5.0                      # Si
300  300  2    237.65196430990454       144.20900763941356       11.081138669036534       # Si
301  301  2    247.35233021795224       144.20900763941356       5.0                      # Si
302  302  2    247.35233021795224       144.20900763941356       11.081138669036534       # Si
303  303  2    4.8499029365332875       144.20900763941356       5.0                      # Si
304  304  2    4.8499029365332875       144.20900763941356       11.081138669036534       # Si
305  305  2    14.550268844580984       144.20900763941356       5.0                      # Si
306  306  2    14.550268844580984       144.20900763941356       11.081138669036534       # Si
307  307  2    24.250074717647557       144.20900763941356       5.0                      # Si
308  308  2    24.250074717647557       144.20900763941356       11.081138669036534       # Si
309  309  2    33.95044062569526        144.20900763941356       5.0                      # Si
310  310  2    33.95044062569526        144.20900763941356       11.081138669036534       # Si
311  311  2    43.65024649876183        144.20900763941356       5.0                      # Si