DATA FILE Produced from netmc results (cf David Morley)
1310 atoms
1965 bonds
3930 angles
0 dihedrals
0 impropers
1 atom types
1 bond types
1 angle types
0 dihedral types
0 improper types
0.00000 44.32832052176195 xlo xhi
0.00000 38.389451676209184 ylo yhi

# Pair Coeffs
#
# 1  Si

# Bond Coeffs
# 
# 1  Si-Si

# Angle Coeffs
# 
# 1  Si-Si-Si

 Masses

1 28.085500 # Si

 Atoms # molecular

1    1    1    28.131396450360178       20.425156981572833       0.0                     # Si
2    2    1    29.836380277241254       20.425156981572833       0.0                     # Si
3    3    1    31.541265669630853       20.425156981572833       0.0                     # Si
4    4    1    33.24624949651192        20.425156981572833       0.0                     # Si
5    5    1    34.95113488890152        20.425156981572833       0.0                     # Si
6    6    1    36.6561187157826         20.425156981572833       0.0                     # Si
7    7    1    38.361004108172196       20.425156981572833       0.0                     # Si
8    8    1    40.06598793505327        20.425156981572833       0.0                     # Si
9    9    1    41.77087332744287        20.425156981572833       0.0                     # Si
10   10   1    43.47585715432394        20.425156981572833       0.0                     # Si
11   11   1    0.8524426961947987       20.425156981572833       0.0                     # Si
12   12   1    2.5574265230758737       20.425156981572833       0.0                     # Si
13   13   1    4.262311915465471        20.425156981572833       0.0                     # Si
14   14   1    5.967295742346546        20.425156981572833       0.0                     # Si
15   15   1    7.672181134736144        20.425156981572833       0.0                     # Si
16   16   1    9.37716496161722         20.425156981572833       0.0                     # Si
17   17   1    11.082050354006816       20.425156981572833       0.0                     # Si
18   18   1    12.78703418088789        20.425156981572833       0.0                     # Si
19   19   1    14.491919573277489       20.425156981572833       0.0                     # Si
20   20   1    16.196903400158565       20.425156981572833       0.0                     # Si
21   21   1    17.90178879254816        20.425156981572833       0.0                     # Si
22   22   1    27.278953754165382       20.91732943896013        0.0                     # Si
23   23   1    28.983937581046455       20.91732943896013        0.0                     # Si
24   24   1    30.688822973436054       20.91732943896013        0.0                     # Si
25   25   1    32.39380680031713        20.91732943896013        0.0                     # Si
26   26   1    34.09869219270672        20.91732943896013        0.0                     # Si
27   27   1    35.8036760195878         20.91732943896013        0.0                     # Si
28   28   1    37.5085614119774         20.91732943896013        0.0                     # Si
29   29   1    39.21354523885847        20.91732943896013        0.0                     # Si
30   30   1    40.91843063124807        20.91732943896013        0.0                     # Si
31   31   1    42.62341445812914        20.91732943896013        0.0                     # Si
32   32   1    44.32829985051874        20.91732943896013        0.0                     # Si
33   33   1    1.7049838268810749       20.91732943896013        0.0                     # Si
34   34   1    3.4098692192706728       20.91732943896013        0.0                     # Si
35   35   1    5.114853046151747        20.91732943896013        0.0                     # Si
36   36   1    6.8197384385413455       20.91732943896013        0.0                     # Si
37   37   1    8.524722265422419        20.91732943896013        0.0                     # Si
38   38   1    10.229607657812018       20.91732943896013        0.0                     # Si
39   39   1    11.934591484693092       20.91732943896013        0.0                     # Si
40   40   1    13.639476877082691       20.91732943896013        0.0                     # Si
41   41   1    15.344460703963765       20.91732943896013        0.0                     # Si
42   42   1    17.04934609635336        20.91732943896013        0.0                     # Si
43   43   1    18.75432992323444        20.91732943896013        0.0                     # Si
44   44   1    27.278953754165382       21.901674353734727       0.0                     # Si
45   45   1    28.983937581046455       21.901674353734727       0.0                     # Si
46   46   1    30.688822973436054       21.901674353734727       0.0                     # Si
47   47   1    32.39380680031713        21.901674353734727       0.0                     # Si
48   48   1    34.09869219270672        21.901674353734727       0.0                     # Si
49   49   1    35.8036760195878         21.901674353734727       0.0                     # Si
50   50   1    37.5085614119774         21.901674353734727       0.0                     # Si
51   51   1    39.21354523885847        21.901674353734727       0.0                     # Si
52   52   1    40.91843063124807        21.901674353734727       0.0                     # Si
53   53   1    42.62341445812914        21.901674353734727       0.0                     # Si
54   54   1    44.32829985051874        21.901674353734727       0.0                     # Si
55   55   1    1.7049838268810749       21.901674353734727       0.0                     # Si
56   56   1    3.4098692192706728       21.901674353734727       0.0                     # Si
57   57   1    5.114853046151747        21.901674353734727       0.0                     # Si
58   58   1    6.8197384385413455       21.901674353734727       0.0                     # Si
59   59   1    8.524722265422419        21.901674353734727       0.0                     # Si
60   60   1    10.229607657812018       21.901674353734727       0.0                     # Si
61   61   1    11.934591484693092       21.901674353734727       0.0                     # Si
62   62   1    13.639476877082691       21.901674353734727       0.0                     # Si
63   63   1    15.344460703963765       21.901674353734727       0.0                     # Si
64   64   1    17.04934609635336        21.901674353734727       0.0                     # Si
65   65   1    18.75432992323444        21.901674353734727       0.0                     # Si
66   66   1    28.131396450360178       22.39384681112202        0.0                     # Si
67   67   1    29.836380277241254       22.39384681112202        0.0                     # Si
68   68   1    31.541265669630853       22.39384681112202        0.0                     # Si
69   69   1    33.24624949651192        22.39384681112202        0.0                     # Si
70   70   1    34.95113488890152        22.39384681112202        0.0                     # Si
71   71   1    36.6561187157826         22.39384681112202        0.0                     # Si
72   72   1    38.361004108172196       22.39384681112202        0.0                     # Si
73   73   1    40.06598793505327        22.39384681112202        0.0                     # Si
74   74   1    41.77087332744287        22.39384681112202        0.0                     # Si
75   75   1    43.47585715432394        22.39384681112202        0.0                     # Si
76   76   1    0.8524426961947987       22.39384681112202        0.0                     # Si
77   77   1    2.5574265230758737       22.39384681112202        0.0                     # Si
78   78   1    4.262311915465471        22.39384681112202        0.0                     # Si
79   79   1    5.967295742346546        22.39384681112202        0.0                     # Si
80   80   1    7.672181134736144        22.39384681112202        0.0                     # Si
81   81   1    9.37716496161722         22.39384681112202        0.0                     # Si
82   82   1    11.082050354006816       22.39384681112202        0.0                     # Si
83   83   1    12.78703418088789        22.39384681112202        0.0                     # Si
84   84   1    14.491919573277489       22.39384681112202        0.0                     # Si
85   85   1    16.196903400158565       22.39384681112202        0.0                     # Si
86   86   1    17.90178879254816        22.39384681112202        0.0                     # Si
87   87   1    26.426511057970583       23.378191725896617       0.0                     # Si
88   88   1    28.131396450360178       23.378191725896617       0.0                     # Si
89   89   1    29.836380277241254       23.378191725896617       0.0                     # Si
90   90   1    31.541265669630853       23.378191725896617       0.0                     # Si
91   91   1    33.24624949651192        23.378191725896617       0.0                     # Si
92   92   1    34.95113488890152        23.378191725896617       0.0                     # Si
93   93   1    36.6561187157826         23.378191725896617       0.0                     # Si
94   94   1    38.361004108172196       23.378191725896617       0.0                     # Si
95   95   1    40.06598793505327        23.378191725896617       0.0                     # Si
96   96   1    41.77087332744287        23.378191725896617       0.0                     # Si
97   97   1    43.47585715432394        23.378191725896617       0.0                     # Si
98   98   1    0.8524426961947987       23.378191725896617       0.0                     # Si
99   99   1    2.5574265230758737       23.378191725896617       0.0                     # Si
100  100  1    4.262311915465471        23.378191725896617       0.0                     # Si
101  101  1    5.967295742346546        23.378191725896617       0.0                     # Si
102  102  1    7.672181134736144        23.378191725896617       0.0                     # Si
103  103  1    9.37716496161722         23.378191725896617       0.0                     # Si
104  104  1    11.082050354006816       23.378191725896617       0.0                     # Si
105  105  1    12.78703418088789        23.378191725896617       0.0                     # Si
106  106  1    14.491919573277489       23.378191725896617       0.0                     # Si
107  107  1    16.196903400158565       23.378191725896617       0.0                     # Si
108  108  1    17.90178879254816        23.378191725896617       0.0                     # Si
109  109  1    19.606772619429236       23.378191725896617       0.0                     # Si
110  110  1    22.16419914250511        23.870364183283915       0.0                     # Si
111  111  1    23.869084534894707       23.870364183283915       0.0                     # Si
112  112  1    25.57406836177578        23.870364183283915       0.0                     # Si
113  113  1    27.278953754165382       23.870364183283915       0.0                     # Si
114  114  1    28.983937581046455       23.870364183283915       0.0                     # Si
115  115  1    30.688822973436054       23.870364183283915       0.0                     # Si
116  116  1    32.39380680031713        23.870364183283915       0.0                     # Si
117  117  1    34.09869219270672        23.870364183283915       0.0                     # Si
118  118  1    35.8036760195878         23.870364183283915       0.0                     # Si
119  119  1    37.5085614119774         23.870364183283915       0.0                     # Si
120  120  1    39.21354523885847        23.870364183283915       0.0                     # Si
121  121  1    40.91843063124807        23.870364183283915       0.0                     # Si
122  122  1    42.62341445812914        23.870364183283915       0.0                     # Si
123  123  1    44.32829985051874        23.870364183283915       0.0                     # Si
124  124  1    1.7049838268810749       23.870364183283915       0.0                     # Si
125  125  1    3.4098692192706728       23.870364183283915       0.0                     # Si
126  126  1    5.114853046151747        23.870364183283915       0.0                     # Si
127  127  1    6.8197384385413455       23.870364183283915       0.0                     # Si
128  128  1    8.524722265422419        23.870364183283915       0.0                     # Si
129  129  1    10.229607657812018       23.870364183283915       0.0                     # Si
130  130  1    11.934591484693092       23.870364183283915       0.0                     # Si
131  131  1    13.639476877082691       23.870364183283915       0.0                     # Si
132  132  1    15.344460703963765       23.870364183283915       0.0                     # Si
133  133  1    17.04934609635336        23.870364183283915       0.0                     # Si
134  134  1    18.75432992323444        23.870364183283915       0.0                     # Si
135  135  1    20.459215315624036       23.870364183283915       0.0                     # Si
136  136  1    23.869084534894707       24.85470909805851        0.0                     # Si
137  137  1    25.57406836177578        24.85470909805851        0.0                     # Si
138  138  1    27.278953754165382       24.85470909805851        0.0                     # Si
139  139  1    28.983937581046455       24.85470909805851        0.0                     # Si
140  140  1    30.688822973436054       24.85470909805851        0.0                     # Si
141  141  1    32.39380680031713        24.85470909805851        0.0                     # Si
142  142  1    34.09869219270672        24.85470909805851        0.0                     # Si
143  143  1    35.8036760195878         24.85470909805851        0.0                     # Si
144  144  1    37.5085614119774         24.85470909805851        0.0                     # Si
145  145  1    39.21354523885847        24.85470909805851        0.0                     # Si
146  146  1    40.91843063124807        24.85470909805851        0.0                     # Si
147  147  1    42.62341445812914        24.85470909805851        0.0                     # Si
148  148  1    44.32829985051874        24.85470909805851        0.0                     # Si
149  149  1    1.7049838268810749       24.85470909805851        0.0                     # Si
150  150  1    3.4098692192706728       24.85470909805851        0.0                     # Si
151  151  1    5.114853046151747        24.85470909805851        0.0                     # Si
152  152  1    6.8197384385413455       24.85470909805851        0.0                     # Si
153  153  1    8.524722265422419        24.85470909805851        0.0                     # Si
154  154  1    10.229607657812018       24.85470909805851        0.0                     # Si
155  155  1    11.934591484693092       24.85470909805851        0.0                     # Si
156  156  1    13.639476877082691       24.85470909805851        0.0                     # Si
157  157  1    15.344460703963765       24.85470909805851        0.0                     # Si
158  158  1    17.04934609635336        24.85470909805851        0.0                     # Si
159  159  1    18.75432992323444        24.85470909805851        0.0                     # Si
160  160  1    20.459215315624036       24.85470909805851        0.0                     # Si
161  161  1    22.16419914250511        24.85470909805851        0.0                     # Si
162  162  1    23.016641838699908       25.346881555445805       0.0                     # Si
163  163  1    24.721527231089507       25.346881555445805       0.0                     # Si
164  164  1    26.426511057970583       25.346881555445805       0.0                     # Si
165  165  1    28.131396450360178       25.346881555445805       0.0                     # Si
166  166  1    29.836380277241254       25.346881555445805       0.0                     # Si
167  167  1    31.541265669630853       25.346881555445805       0.0                     # Si
168  168  1    33.24624949651192        25.346881555445805       0.0                     # Si
169  169  1    34.95113488890152        25.346881555445805       0.0                     # Si
170  170  1    36.6561187157826         25.346881555445805       0.0                     # Si
171  171  1    38.361004108172196       25.346881555445805       0.0                     # Si
172  172  1    40.06598793505327        25.346881555445805       0.0                     # Si
173  173  1    41.77087332744287        25.346881555445805       0.0                     # Si
174  174  1    43.47585715432394        25.346881555445805       0.0                     # Si
175  175  1    0.8524426961947987       25.346881555445805       0.0                     # Si
176  176  1    2.5574265230758737       25.346881555445805       0.0                     # Si
177  177  1    4.262311915465471        25.346881555445805       0.0                     # Si
178  178  1    5.967295742346546        25.346881555445805       0.0                     # Si
179  179  1    7.672181134736144        25.346881555445805       0.0                     # Si
180  180  1    9.37716496161722         25.346881555445805       0.0                     # Si
181  181  1    11.082050354006816       25.346881555445805       0.0                     # Si
182  182  1    12.78703418088789        25.346881555445805       0.0                     # Si
183  183  1    14.491919573277489       25.346881555445805       0.0                     # Si
184  184  1    16.196903400158565       25.346881555445805       0.0                     # Si
185  185  1    17.90178879254816        25.346881555445805       0.0                     # Si
186  186  1    19.606772619429236       25.346881555445805       0.0                     # Si
187  187  1    21.311658011818835       25.346881555445805       0.0                     # Si
188  188  1    23.016641838699908       26.3312264702204         0.0                     # Si
189  189  1    24.721527231089507       26.3312264702204         0.0                     # Si
190  190  1    26.426511057970583       26.3312264702204         0.0                     # Si
191  191  1    28.131396450360178       26.3312264702204         0.0                     # Si
192  192  1    29.836380277241254       26.3312264702204         0.0                     # Si
193  193  1    31.541265669630853       26.3312264702204         0.0                     # Si
194  194  1    33.24624949651192        26.3312264702204         0.0                     # Si
195  195  1    34.95113488890152        26.3312264702204         0.0                     # Si
196  196  1    36.6561187157826         26.3312264702204         0.0                     # Si
197  197  1    38.361004108172196       26.3312264702204         0.0                     # Si
198  198  1    40.06598793505327        26.3312264702204         0.0                     # Si
199  199  1    41.77087332744287        26.3312264702204         0.0                     # Si
200  200  1    43.47585715432394        26.3312264702204         0.0                     # Si
201  201  1    0.8524426961947987       26.3312264702204         0.0                     # Si
202  202  1    2.5574265230758737       26.3312264702204         0.0                     # Si
203  203  1    4.262311915465471        26.3312264702204         0.0                     # Si
204  204  1    5.967295742346546        26.3312264702204         0.0                     # Si
205  205  1    7.672181134736144        26.3312264702204         0.0                     # Si
206  206  1    9.37716496161722         26.3312264702204         0.0                     # Si
207  207  1    11.082050354006816       26.3312264702204         0.0                     # Si
208  208  1    12.78703418088789        26.3312264702204         0.0                     # Si
209  209  1    14.491919573277489       26.3312264702204         0.0                     # Si
210  210  1    16.196903400158565       26.3312264702204         0.0                     # Si
211  211  1    17.90178879254816        26.3312264702204         0.0                     # Si
212  212  1    19.606772619429236       26.3312264702204         0.0                     # Si
213  213  1    21.311658011818835       26.3312264702204         0.0                     # Si
214  214  1    22.16419914250511        26.8233989276077         0.0                     # Si
215  215  1    23.869084534894707       26.8233989276077         0.0                     # Si
216  216  1    25.57406836177578        26.8233989276077         0.0                     # Si
217  217  1    27.278953754165382       26.8233989276077         0.0                     # Si
218  218  1    28.983937581046455       26.8233989276077         0.0                     # Si
219  219  1    30.688822973436054       26.8233989276077         0.0                     # Si
220  220  1    32.39380680031713        26.8233989276077         0.0                     # Si
221  221  1    34.09869219270672        26.8233989276077         0.0                     # Si
222  222  1    35.8036760195878         26.8233989276077         0.0                     # Si
223  223  1    37.5085614119774         26.8233989276077         0.0                     # Si
224  224  1    39.21354523885847        26.8233989276077         0.0                     # Si
225  225  1    40.91843063124807        26.8233989276077         0.0                     # Si
226  226  1    42.62341445812914        26.8233989276077         0.0                     # Si
227  227  1    44.32829985051874        26.8233989276077         0.0                     # Si
228  228  1    1.7049838268810749       26.8233989276077         0.0                     # Si
229  229  1    3.4098692192706728       26.8233989276077         0.0                     # Si
230  230  1    5.114853046151747        26.8233989276077         0.0                     # Si
231  231  1    6.8197384385413455       26.8233989276077         0.0                     # Si
232  232  1    8.524722265422419        26.8233989276077         0.0                     # Si
233  233  1    10.229607657812018       26.8233989276077         0.0                     # Si
234  234  1    11.934591484693092       26.8233989276077         0.0                     # Si
235  235  1    13.639476877082691       26.8233989276077         0.0                     # Si
236  236  1    15.344460703963765       26.8233989276077         0.0                     # Si
237  237  1    17.04934609635336        26.8233989276077         0.0                     # Si
238  238  1    18.75432992323444        26.8233989276077         0.0                     # Si
239  239  1    20.459215315624036       26.8233989276077         0.0                     # Si
240  240  1    23.869084534894707       27.80774384238229        0.0                     # Si
241  241  1    25.57406836177578        27.80774384238229        0.0                     # Si
242  242  1    27.278953754165382       27.80774384238229        0.0                     # Si
243  243  1    28.983937581046455       27.80774384238229        0.0                     # Si
244  244  1    30.688822973436054       27.80774384238229        0.0                     # Si
245  245  1    32.39380680031713        27.80774384238229        0.0                     # Si
246  246  1    34.09869219270672        27.80774384238229        0.0                     # Si
247  247  1    35.8036760195878         27.80774384238229        0.0                     # Si
248  248  1    37.5085614119774         27.80774384238229        0.0                     # Si
249  249  1    39.21354523885847        27.80774384238229        0.0                     # Si
250  250  1    40.91843063124807        27.80774384238229        0.0                     # Si
251  251  1    42.62341445812914        27.80774384238229        0.0                     # Si
252  252  1    44.32829985051874        27.80774384238229        0.0                     # Si
253  253  1    1.7049838268810749       27.80774384238229        0.0                     # Si
254  254  1    3.4098692192706728       27.80774384238229        0.0                     # Si
255  255  1    5.114853046151747        27.80774384238229        0.0                     # Si
256  256  1    6.8197384385413455       27.80774384238229        0.0                     # Si
257  257  1    8.524722265422419        27.80774384238229        0.0                     # Si
258  258  1    10.229607657812018       27.80774384238229        0.0                     # Si
259  259  1    11.934591484693092       27.80774384238229        0.0                     # Si
260  260  1    13.639476877082691       27.80774384238229        0.0                     # Si
261  261  1    15.344460703963765       27.80774384238229        0.0                     # Si
262  262  1    17.04934609635336        27.80774384238229        0.0                     # Si
263  263  1    18.75432992323444        27.80774384238229        0.0                     # Si
264  264  1    20.459215315624036       27.80774384238229        0.0                     # Si
265  265  1    22.16419914250511        27.80774384238229        0.0                     # Si
266  266  1    23.016641838699908       28.29991629976959        0.0                     # Si
267  267  1    24.721527231089507       28.29991629976959        0.0                     # Si
268  268  1    26.426511057970583       28.29991629976959        0.0                     # Si
269  269  1    28.131396450360178       28.29991629976959        0.0                     # Si
270  270  1    29.836380277241254       28.29991629976959        0.0                     # Si
271  271  1    31.541265669630853       28.29991629976959        0.0                     # Si
272  272  1    33.24624949651192        28.29991629976959        0.0                     # Si
273  273  1    34.95113488890152        28.29991629976959        0.0                     # Si
274  274  1    36.6561187157826         28.29991629976959        0.0                     # Si
275  275  1    38.361004108172196       28.29991629976959        0.0                     # Si
276  276  1    40.06598793505327        28.29991629976959        0.0                     # Si
277  277  1    41.77087332744287        28.29991629976959        0.0                     # Si
278  278  1    43.47585715432394        28.29991629976959        0.0                     # Si
279  279  1    0.8524426961947987       28.29991629976959        0.0                     # Si
280  280  1    2.5574265230758737       28.29991629976959        0.0                     # Si
281  281  1    4.262311915465471        28.29991629976959        0.0                     # Si
282  282  1    5.967295742346546        28.29991629976959        0.0                     # Si
283  283  1    7.672181134736144        28.29991629976959        0.0                     # Si
284  284  1    9.37716496161722         28.29991629976959        0.0                     # Si
285  285  1    11.082050354006816       28.29991629976959        0.0                     # Si
286  286  1    12.78703418088789        28.29991629976959        0.0                     # Si
287  287  1    14.491919573277489       28.29991629976959        0.0                     # Si
288  288  1    16.196903400158565       28.29991629976959        0.0                     # Si
289  289  1    17.90178879254816        28.29991629976959        0.0                     # Si
290  290  1    19.606772619429236       28.29991629976959        0.0                     # Si
291  291  1    21.311658011818835       28.29991629976959        0.0                     # Si
292  292  1    23.016641838699908       29.284261214544184       0.0                     # Si
293  293  1    24.721527231089507       29.284261214544184       0.0                     # Si
294  294  1    26.426511057970583       29.284261214544184       0.0                     # Si
295  295  1    28.131396450360178       29.284261214544184       0.0                     # Si
296  296  1    29.836380277241254       29.284261214544184       0.0                     # Si
297  297  1    31.541265669630853       29.284261214544184       0.0                     # Si
298  298  1    33.24624949651192        29.284261214544184       0.0                     # Si
299  299  1    34.95113488890152        29.284261214544184       0.0                     # Si
300  300  1    36.6561187157826         29.284261214544184       0.0                     # Si
301  301  1    38.361004108172196       29.284261214544184       0.0                     # Si
302  302  1    40.06598793505327        29.284261214544184       0.0                     # Si
303  303  1    41.77087332744287        29.284261214544184       0.0                     # Si
304  304  1    43.47585715432394        29.284261214544184       0.0                     # Si
305  305  1    0.8524426961947987       29.284261214544184       0.0                     # Si
306  306  1    2.5574265230758737       29.284261214544184       0.0                     # Si
307  307  1    4.262311915465471        29.284261214544184       0.0                     # Si
308  308  1    5.967295742346546        29.284261214544184       0.0                     # Si
309  309  1    7.672181134736144        29.284261214544184       0.0                     # Si
310  310  1    9.37716496161722         29.284261214544184       0.0                     # Si
311  311  1    11.082050354006816       29.284261214544184       0.0                     # Si
312  312  1    12.78703418088789        29.284261214544184       0.0                     # Si
313  313  1    14.491919573277489       29.284261214544184       0.0                     # Si
314  314  1    16.196903400158565       29.284261214544184       0.0                     # Si