DATA FILE Produced from netmc results (cf David Morley)
7860 atoms
26200 bonds
0 angles
0 dihedrals
0 impropers
2 atom types
0 bond types
2 bond types
0 angle types
0 dihedral types
0 improper types
0.00000 254.1498881833104 xlo xhi
0.00000 220.10025952003642 ylo yhi
0.0000 200.0000 zlo zhi

# Pair Coeffs
#
# 1  O
# 2  Si

# Bond Coeffs
# 
# 1  O-O
# 2  Si-O
# 3  O-O rep
# 4  Si-Si rep

 Masses

1 28.10000 # O 
2 32.01000 # Si

 Atoms # molecular

1    1    2    161.2872127377235        117.10462525745527       5.0                      # Si
2    2    2    161.2872127377235        117.10462525745527       11.081138669036534       # Si
3    3    2    171.0624860586121        117.10462525745527       5.0                      # Si
4    4    2    171.0624860586121        117.10462525745527       11.081138669036534       # Si
5    5    2    180.8371950198609        117.10462525745527       5.0                      # Si
6    6    2    180.8371950198609        117.10462525745527       11.081138669036534       # Si
7    7    2    190.61246834074947       117.10462525745527       5.0                      # Si
8    8    2    190.61246834074947       117.10462525745527       11.081138669036534       # Si
9    9    2    200.38717730199826       117.10462525745527       5.0                      # Si
10   10   2    200.38717730199826       117.10462525745527       11.081138669036534       # Si
11   11   2    210.16245062288687       117.10462525745527       5.0                      # Si
12   12   2    210.16245062288687       117.10462525745527       11.081138669036534       # Si
13   13   2    219.93715958413569       117.10462525745527       5.0                      # Si
14   14   2    219.93715958413569       117.10462525745527       11.081138669036534       # Si
15   15   2    229.71243290502426       117.10462525745527       5.0                      # Si
16   16   2    229.71243290502426       117.10462525745527       11.081138669036534       # Si
17   17   2    239.48714186627308       117.10462525745527       5.0                      # Si
18   18   2    239.48714186627308       117.10462525745527       11.081138669036534       # Si
19   19   2    249.26241518716162       117.10462525745527       5.0                      # Si
20   20   2    249.26241518716162       117.10462525745527       11.081138669036534       # Si
21   21   2    4.887354480624398        117.10462525745527       5.0                      # Si
22   22   2    4.887354480624398        117.10462525745527       11.081138669036534       # Si
23   23   2    14.66262780151299        117.10462525745527       5.0                      # Si
24   24   2    14.66262780151299        117.10462525745527       11.081138669036534       # Si
25   25   2    24.437336762761785       117.10462525745527       5.0                      # Si
26   26   2    24.437336762761785       117.10462525745527       11.081138669036534       # Si
27   27   2    34.212610083650375       117.10462525745527       5.0                      # Si
28   28   2    34.212610083650375       117.10462525745527       11.081138669036534       # Si
29   29   2    43.98731904489918        117.10462525745527       5.0                      # Si
30   30   2    43.98731904489918        117.10462525745527       11.081138669036534       # Si
31   31   2    53.762592365787775       117.10462525745527       5.0                      # Si
32   32   2    53.762592365787775       117.10462525745527       11.081138669036534       # Si
33   33   2    63.53730132703656        117.10462525745527       5.0                      # Si
34   34   2    63.53730132703656        117.10462525745527       11.081138669036534       # Si
35   35   2    73.31257464792515        117.10462525745527       5.0                      # Si
36   36   2    73.31257464792515        117.10462525745527       11.081138669036534       # Si
37   37   2    83.08728360917395        117.10462525745527       5.0                      # Si
38   38   2    83.08728360917395        117.10462525745527       11.081138669036534       # Si
39   39   2    92.86255693006255        117.10462525745527       5.0                      # Si
40   40   2    92.86255693006255        117.10462525745527       11.081138669036534       # Si
41   41   2    102.63726589131133       117.10462525745527       5.0                      # Si
42   42   2    102.63726589131133       117.10462525745527       11.081138669036534       # Si
43   43   2    156.3998582570991        119.9264234564301        5.0                      # Si
44   44   2    156.3998582570991        119.9264234564301        11.081138669036534       # Si
45   45   2    166.17513157798768       119.9264234564301        5.0                      # Si
46   46   2    166.17513157798768       119.9264234564301        11.081138669036534       # Si
47   47   2    175.9498405392365        119.9264234564301        5.0                      # Si
48   48   2    175.9498405392365        119.9264234564301        11.081138669036534       # Si
49   49   2    185.7251138601251        119.9264234564301        5.0                      # Si
50   50   2    185.7251138601251        119.9264234564301        11.081138669036534       # Si
51   51   2    195.49982282137387       119.9264234564301        5.0                      # Si
52   52   2    195.49982282137387       119.9264234564301        11.081138669036534       # Si
53   53   2    205.27509614226247       119.9264234564301        5.0                      # Si
54   54   2    205.27509614226247       119.9264234564301        11.081138669036534       # Si
55   55   2    215.04980510351126       119.9264234564301        5.0                      # Si
56   56   2    215.04980510351126       119.9264234564301        11.081138669036534       # Si
57   57   2    224.82507842439986       119.9264234564301        5.0                      # Si
58   58   2    224.82507842439986       119.9264234564301        11.081138669036534       # Si
59   59   2    234.59978738564868       119.9264234564301        5.0                      # Si
60   60   2    234.59978738564868       119.9264234564301        11.081138669036534       # Si
61   61   2    244.37506070653723       119.9264234564301        5.0                      # Si
62   62   2    244.37506070653723       119.9264234564301        11.081138669036534       # Si
63   63   2    254.14976966778605       119.9264234564301        5.0                      # Si
64   64   2    254.14976966778605       119.9264234564301        11.081138669036534       # Si
65   65   2    9.77527332088859         119.9264234564301        5.0                      # Si
66   66   2    9.77527332088859         119.9264234564301        11.081138669036534       # Si
67   67   2    19.54998228213739        119.9264234564301        5.0                      # Si
68   68   2    19.54998228213739        119.9264234564301        11.081138669036534       # Si
69   69   2    29.32525560302598        119.9264234564301        5.0                      # Si
70   70   2    29.32525560302598        119.9264234564301        11.081138669036534       # Si
71   71   2    39.09996456427478        119.9264234564301        5.0                      # Si
72   72   2    39.09996456427478        119.9264234564301        11.081138669036534       # Si
73   73   2    48.875237885163365       119.9264234564301        5.0                      # Si
74   74   2    48.875237885163365       119.9264234564301        11.081138669036534       # Si
75   75   2    58.64994684641217        119.9264234564301        5.0                      # Si
76   76   2    58.64994684641217        119.9264234564301        11.081138669036534       # Si
77   77   2    68.42522016730075        119.9264234564301        5.0                      # Si
78   78   2    68.42522016730075        119.9264234564301        11.081138669036534       # Si
79   79   2    78.19992912854956        119.9264234564301        5.0                      # Si
80   80   2    78.19992912854956        119.9264234564301        11.081138669036534       # Si
81   81   2    87.97520244943814        119.9264234564301        5.0                      # Si
82   82   2    87.97520244943814        119.9264234564301        11.081138669036534       # Si
83   83   2    97.74991141068693        119.9264234564301        5.0                      # Si
84   84   2    97.74991141068693        119.9264234564301        11.081138669036534       # Si
85   85   2    107.52518473157555       119.9264234564301        5.0                      # Si
86   86   2    107.52518473157555       119.9264234564301        11.081138669036534       # Si
87   87   2    156.3998582570991        125.57001985437975       5.0                      # Si
88   88   2    156.3998582570991        125.57001985437975       11.081138669036534       # Si
89   89   2    166.17513157798768       125.57001985437975       5.0                      # Si
90   90   2    166.17513157798768       125.57001985437975       11.081138669036534       # Si
91   91   2    175.9498405392365        125.57001985437975       5.0                      # Si
92   92   2    175.9498405392365        125.57001985437975       11.081138669036534       # Si
93   93   2    185.7251138601251        125.57001985437975       5.0                      # Si
94   94   2    185.7251138601251        125.57001985437975       11.081138669036534       # Si
95   95   2    195.49982282137387       125.57001985437975       5.0                      # Si
96   96   2    195.49982282137387       125.57001985437975       11.081138669036534       # Si
97   97   2    205.27509614226247       125.57001985437975       5.0                      # Si
98   98   2    205.27509614226247       125.57001985437975       11.081138669036534       # Si
99   99   2    215.04980510351126       125.57001985437975       5.0                      # Si
100  100  2    215.04980510351126       125.57001985437975       11.081138669036534       # Si
101  101  2    224.82507842439986       125.57001985437975       5.0                      # Si
102  102  2    224.82507842439986       125.57001985437975       11.081138669036534       # Si
103  103  2    234.59978738564868       125.57001985437975       5.0                      # Si
104  104  2    234.59978738564868       125.57001985437975       11.081138669036534       # Si
105  105  2    244.37506070653723       125.57001985437975       5.0                      # Si
106  106  2    244.37506070653723       125.57001985437975       11.081138669036534       # Si
107  107  2    254.14976966778605       125.57001985437975       5.0                      # Si
108  108  2    254.14976966778605       125.57001985437975       11.081138669036534       # Si
109  109  2    9.77527332088859         125.57001985437975       5.0                      # Si
110  110  2    9.77527332088859         125.57001985437975       11.081138669036534       # Si
111  111  2    19.54998228213739        125.57001985437975       5.0                      # Si
112  112  2    19.54998228213739        125.57001985437975       11.081138669036534       # Si
113  113  2    29.32525560302598        125.57001985437975       5.0                      # Si
114  114  2    29.32525560302598        125.57001985437975       11.081138669036534       # Si
115  115  2    39.09996456427478        125.57001985437975       5.0                      # Si
116  116  2    39.09996456427478        125.57001985437975       11.081138669036534       # Si
117  117  2    48.875237885163365       125.57001985437975       5.0                      # Si
118  118  2    48.875237885163365       125.57001985437975       11.081138669036534       # Si
119  119  2    58.64994684641217        125.57001985437975       5.0                      # Si
120  120  2    58.64994684641217        125.57001985437975       11.081138669036534       # Si
121  121  2    68.42522016730075        125.57001985437975       5.0                      # Si
122  122  2    68.42522016730075        125.57001985437975       11.081138669036534       # Si
123  123  2    78.19992912854956        125.57001985437975       5.0                      # Si
124  124  2    78.19992912854956        125.57001985437975       11.081138669036534       # Si
125  125  2    87.97520244943814        125.57001985437975       5.0                      # Si
126  126  2    87.97520244943814        125.57001985437975       11.081138669036534       # Si
127  127  2    97.74991141068693        125.57001985437975       5.0                      # Si
128  128  2    97.74991141068693        125.57001985437975       11.081138669036534       # Si
129  129  2    107.52518473157555       125.57001985437975       5.0                      # Si
130  130  2    107.52518473157555       125.57001985437975       11.081138669036534       # Si
131  131  2    161.2872127377235        128.39181805335457       5.0                      # Si
132  132  2    161.2872127377235        128.39181805335457       11.081138669036534       # Si
133  133  2    171.0624860586121        128.39181805335457       5.0                      # Si
134  134  2    171.0624860586121        128.39181805335457       11.081138669036534       # Si
135  135  2    180.8371950198609        128.39181805335457       5.0                      # Si
136  136  2    180.8371950198609        128.39181805335457       11.081138669036534       # Si
137  137  2    190.61246834074947       128.39181805335457       5.0                      # Si
138  138  2    190.61246834074947       128.39181805335457       11.081138669036534       # Si
139  139  2    200.38717730199826       128.39181805335457       5.0                      # Si
140  140  2    200.38717730199826       128.39181805335457       11.081138669036534       # Si
141  141  2    210.16245062288687       128.39181805335457       5.0                      # Si
142  142  2    210.16245062288687       128.39181805335457       11.081138669036534       # Si
143  143  2    219.93715958413569       128.39181805335457       5.0                      # Si
144  144  2    219.93715958413569       128.39181805335457       11.081138669036534       # Si
145  145  2    229.71243290502426       128.39181805335457       5.0                      # Si
146  146  2    229.71243290502426       128.39181805335457       11.081138669036534       # Si
147  147  2    239.48714186627308       128.39181805335457       5.0                      # Si
148  148  2    239.48714186627308       128.39181805335457       11.081138669036534       # Si
149  149  2    249.26241518716162       128.39181805335457       5.0                      # Si
150  150  2    249.26241518716162       128.39181805335457       11.081138669036534       # Si
151  151  2    4.887354480624398        128.39181805335457       5.0                      # Si
152  152  2    4.887354480624398        128.39181805335457       11.081138669036534       # Si
153  153  2    14.66262780151299        128.39181805335457       5.0                      # Si
154  154  2    14.66262780151299        128.39181805335457       11.081138669036534       # Si
155  155  2    24.437336762761785       128.39181805335457       5.0                      # Si
156  156  2    24.437336762761785       128.39181805335457       11.081138669036534       # Si
157  157  2    34.212610083650375       128.39181805335457       5.0                      # Si
158  158  2    34.212610083650375       128.39181805335457       11.081138669036534       # Si
159  159  2    43.98731904489918        128.39181805335457       5.0                      # Si
160  160  2    43.98731904489918        128.39181805335457       11.081138669036534       # Si
161  161  2    53.762592365787775       128.39181805335457       5.0                      # Si
162  162  2    53.762592365787775       128.39181805335457       11.081138669036534       # Si
163  163  2    63.53730132703656        128.39181805335457       5.0                      # Si
164  164  2    63.53730132703656        128.39181805335457       11.081138669036534       # Si
165  165  2    73.31257464792515        128.39181805335457       5.0                      # Si
166  166  2    73.31257464792515        128.39181805335457       11.081138669036534       # Si
167  167  2    83.08728360917395        128.39181805335457       5.0                      # Si
168  168  2    83.08728360917395        128.39181805335457       11.081138669036534       # Si
169  169  2    92.86255693006255        128.39181805335457       5.0                      # Si
170  170  2    92.86255693006255        128.39181805335457       11.081138669036534       # Si
171  171  2    102.63726589131133       128.39181805335457       5.0                      # Si
172  172  2    102.63726589131133       128.39181805335457       11.081138669036534       # Si
173  173  2    151.51250377647472       134.03541445130423       5.0                      # Si
174  174  2    151.51250377647472       134.03541445130423       11.081138669036534       # Si
175  175  2    161.2872127377235        134.03541445130423       5.0                      # Si
176  176  2    161.2872127377235        134.03541445130423       11.081138669036534       # Si
177  177  2    171.0624860586121        134.03541445130423       5.0                      # Si
178  178  2    171.0624860586121        134.03541445130423       11.081138669036534       # Si
179  179  2    180.8371950198609        134.03541445130423       5.0                      # Si
180  180  2    180.8371950198609        134.03541445130423       11.081138669036534       # Si
181  181  2    190.61246834074947       134.03541445130423       5.0                      # Si
182  182  2    190.61246834074947       134.03541445130423       11.081138669036534       # Si
183  183  2    200.38717730199826       134.03541445130423       5.0                      # Si
184  184  2    200.38717730199826       134.03541445130423       11.081138669036534       # Si
185  185  2    210.16245062288687       134.03541445130423       5.0                      # Si
186  186  2    210.16245062288687       134.03541445130423       11.081138669036534       # Si
187  187  2    219.93715958413569       134.03541445130423       5.0                      # Si
188  188  2    219.93715958413569       134.03541445130423       11.081138669036534       # Si
189  189  2    229.71243290502426       134.03541445130423       5.0                      # Si
190  190  2    229.71243290502426       134.03541445130423       11.081138669036534       # Si
191  191  2    239.48714186627308       134.03541445130423       5.0                      # Si
192  192  2    239.48714186627308       134.03541445130423       11.081138669036534       # Si
193  193  2    249.26241518716162       134.03541445130423       5.0                      # Si
194  194  2    249.26241518716162       134.03541445130423       11.081138669036534       # Si
195  195  2    4.887354480624398        134.03541445130423       5.0                      # Si
196  196  2    4.887354480624398        134.03541445130423       11.081138669036534       # Si
197  197  2    14.66262780151299        134.03541445130423       5.0                      # Si
198  198  2    14.66262780151299        134.03541445130423       11.081138669036534       # Si
199  199  2    24.437336762761785       134.03541445130423       5.0                      # Si
200  200  2    24.437336762761785       134.03541445130423       11.081138669036534       # Si
201  201  2    34.212610083650375       134.03541445130423       5.0                      # Si
202  202  2    34.212610083650375       134.03541445130423       11.081138669036534       # Si
203  203  2    43.98731904489918        134.03541445130423       5.0                      # Si
204  204  2    43.98731904489918        134.03541445130423       11.081138669036534       # Si
205  205  2    53.762592365787775       134.03541445130423       5.0                      # Si
206  206  2    53.762592365787775       134.03541445130423       11.081138669036534       # Si
207  207  2    63.53730132703656        134.03541445130423       5.0                      # Si
208  208  2    63.53730132703656        134.03541445130423       11.081138669036534       # Si
209  209  2    73.31257464792515        134.03541445130423       5.0                      # Si
210  210  2    73.31257464792515        134.03541445130423       11.081138669036534       # Si
211  211  2    83.08728360917395        134.03541445130423       5.0                      # Si
212  212  2    83.08728360917395        134.03541445130423       11.081138669036534       # Si
213  213  2    92.86255693006255        134.03541445130423       5.0                      # Si
214  214  2    92.86255693006255        134.03541445130423       11.081138669036534       # Si
215  215  2    102.63726589131133       134.03541445130423       5.0                      # Si
216  216  2    102.63726589131133       134.03541445130423       11.081138669036534       # Si
217  217  2    112.41253921219993       134.03541445130423       5.0                      # Si
218  218  2    112.41253921219993       134.03541445130423       11.081138669036534       # Si
219  219  2    127.07516701371293       136.85721265027905       5.0                      # Si
220  220  2    127.07516701371293       136.85721265027905       11.081138669036534       # Si
221  221  2    136.84987597496172       136.85721265027905       5.0                      # Si
222  222  2    136.84987597496172       136.85721265027905       11.081138669036534       # Si
223  223  2    146.6251492958503        136.85721265027905       5.0                      # Si
224  224  2    146.6251492958503        136.85721265027905       11.081138669036534       # Si
225  225  2    156.3998582570991        136.85721265027905       5.0                      # Si
226  226  2    156.3998582570991        136.85721265027905       11.081138669036534       # Si
227  227  2    166.17513157798768       136.85721265027905       5.0                      # Si
228  228  2    166.17513157798768       136.85721265027905       11.081138669036534       # Si
229  229  2    175.9498405392365        136.85721265027905       5.0                      # Si
230  230  2    175.9498405392365        136.85721265027905       11.081138669036534       # Si
231  231  2    185.7251138601251        136.85721265027905       5.0                      # Si
232  232  2    185.7251138601251        136.85721265027905       11.081138669036534       # Si
233  233  2    195.49982282137387       136.85721265027905       5.0                      # Si
234  234  2    195.49982282137387       136.85721265027905       11.081138669036534       # Si
235  235  2    205.27509614226247       136.85721265027905       5.0                      # Si
236  236  2    205.27509614226247       136.85721265027905       11.081138669036534       # Si
237  237  2    215.04980510351126       136.85721265027905       5.0                      # Si
238  238  2    215.04980510351126       136.85721265027905       11.081138669036534       # Si
239  239  2    224.82507842439986       136.85721265027905       5.0                      # Si
240  240  2    224.82507842439986       136.85721265027905       11.081138669036534       # Si
241  241  2    234.59978738564868       136.85721265027905       5.0                      # Si
242  242  2    234.59978738564868       136.85721265027905       11.081138669036534       # Si
243  243  2    244.37506070653723       136.85721265027905       5.0                      # Si
244  244  2    244.37506070653723       136.85721265027905       11.081138669036534       # Si
245  245  2    254.14976966778605       136.85721265027905       5.0                      # Si
246  246  2    254.14976966778605       136.85721265027905       11.081138669036534       # Si
247  247  2    9.77527332088859         136.85721265027905       5.0                      # Si
248  248  2    9.77527332088859         136.85721265027905       11.081138669036534       # Si
249  249  2    19.54998228213739        136.85721265027905       5.0                      # Si
250  250  2    19.54998228213739        136.85721265027905       11.081138669036534       # Si
251  251  2    29.32525560302598        136.85721265027905       5.0                      # Si
252  252  2    29.32525560302598        136.85721265027905       11.081138669036534       # Si
253  253  2    39.09996456427478        136.85721265027905       5.0                      # Si
254  254  2    39.09996456427478        136.85721265027905       11.081138669036534       # Si
255  255  2    48.875237885163365       136.85721265027905       5.0                      # Si
256  256  2    48.875237885163365       136.85721265027905       11.081138669036534       # Si
257  257  2    58.64994684641217        136.85721265027905       5.0                      # Si
258  258  2    58.64994684641217        136.85721265027905       11.081138669036534       # Si
259  259  2    68.42522016730075        136.85721265027905       5.0                      # Si
260  260  2    68.42522016730075        136.85721265027905       11.081138669036534       # Si
261  261  2    78.19992912854956        136.85721265027905       5.0                      # Si
262  262  2    78.19992912854956        136.85721265027905       11.081138669036534       # Si
263  263  2    87.97520244943814        136.85721265027905       5.0                      # Si
264  264  2    87.97520244943814        136.85721265027905       11.081138669036534       # Si
265  265  2    97.74991141068693        136.85721265027905       5.0                      # Si
266  266  2    97.74991141068693        136.85721265027905       11.081138669036534       # Si
267  267  2    107.52518473157555       136.85721265027905       5.0                      # Si
268  268  2    107.52518473157555       136.85721265027905       11.081138669036534       # Si
269  269  2    117.29989369282434       136.85721265027905       5.0                      # Si
270  270  2    117.29989369282434       136.85721265027905       11.081138669036534       # Si
271  271  2    136.84987597496172       142.50080904822872       5.0                      # Si
272  272  2    136.84987597496172       142.50080904822872       11.081138669036534       # Si
273  273  2    146.6251492958503        142.50080904822872       5.0                      # Si
274  274  2    146.6251492958503        142.50080904822872       11.081138669036534       # Si
275  275  2    156.3998582570991        142.50080904822872       5.0                      # Si
276  276  2    156.3998582570991        142.50080904822872       11.081138669036534       # Si
277  277  2    166.17513157798768       142.50080904822872       5.0                      # Si
278  278  2    166.17513157798768       142.50080904822872       11.081138669036534       # Si
279  279  2    175.9498405392365        142.50080904822872       5.0                      # Si
280  280  2    175.9498405392365        142.50080904822872       11.081138669036534       # Si
281  281  2    185.7251138601251        142.50080904822872       5.0                      # Si
282  282  2    185.7251138601251        142.50080904822872       11.081138669036534       # Si
283  283  2    195.49982282137387       142.50080904822872       5.0                      # Si
284  284  2    195.49982282137387       142.50080904822872       11.081138669036534       # Si
285  285  2    205.27509614226247       142.50080904822872       5.0                      # Si
286  286  2    205.27509614226247       142.50080904822872       11.081138669036534       # Si
287  287  2    215.04980510351126       142.50080904822872       5.0                      # Si
288  288  2    215.04980510351126       142.50080904822872       11.081138669036534       # Si
289  289  2    224.82507842439986       142.50080904822872       5.0                      # Si
290  290  2    224.82507842439986       142.50080904822872       11.081138669036534       # Si
291  291  2    234.59978738564868       142.50080904822872       5.0                      # Si
292  292  2    234.59978738564868       142.50080904822872       11.081138669036534       # Si
293  293  2    244.37506070653723       142.50080904822872       5.0                      # Si
294  294  2    244.37506070653723       142.50080904822872       11.081138669036534       # Si
295  295  2    254.14976966778605       142.50080904822872       5.0                      # Si
296  296  2    254.14976966778605       142.50080904822872       11.081138669036534       # Si
297  297  2    9.77527332088859         142.50080904822872       5.0                      # Si
298  298  2    9.77527332088859         142.50080904822872       11.081138669036534       # Si
299  299  2    19.54998228213739        142.50080904822872       5.0                      # Si
300  300  2    19.54998228213739        142.50080904822872       11.081138669036534       # Si
301  301  2    29.32525560302598        142.50080904822872       5.0                      # Si
302  302  2    29.32525560302598        142.50080904822872       11.081138669036534       # Si
303  303  2    39.09996456427478        142.50080904822872       5.0                      # Si
304  304  2    39.09996456427478        142.50080904822872       11.081138669036534       # Si
305  305  2    48.875237885163365       142.50080904822872       5.0                      # Si
306  306  2    48.875237885163365       142.50080904822872       11.081138669036534       # Si
307  307  2    58.64994684641217        142.50080904822872       5.0                      # Si
308  308  2    58.64994684641217        142.50080904822872       11.081138669036534       # Si
309  309  2    68.42522016730075        142.50080904822872       5.0                      # Si
310  310  2    68.42522016730075        142.50080904822872       11.081138669036534       # Si
311  311  2    78.19992912854956        142.50080904822872       5.0                      # Si