DATA FILE Produced from netmc results (cf David Morley)
508 atoms
762 bonds
1524 angles
0 dihedrals
0 impropers
1 atom types
1 bond types
1 angle types
0 dihedral types
0 improper types
0.00000 27.604347562273688 xlo xhi
0.00000 23.90606617576384 ylo yhi

# Pair Coeffs
#
# 1  Si

# Bond Coeffs
# 
# 1  Si-Si

# Angle Coeffs
# 
# 1  Si-Si-Si

 Masses

1 28.085500 # Si

 Atoms # molecular

1    1    1    14.664777861086066       13.198140701202954       0.0                     # Si
2    2    1    16.390098578712756       13.198140701202954       0.0                     # Si
3    3    1    18.115319687730377       13.198140701202954       0.0                     # Si
4    4    1    19.84064040535707        13.198140701202954       0.0                     # Si
5    5    1    21.565861514374692       13.198140701202954       0.0                     # Si
6    6    1    23.291182232001383       13.198140701202954       0.0                     # Si
7    7    1    25.016403341019007       13.198140701202954       0.0                     # Si
8    8    1    26.741724058645698       13.198140701202954       0.0                     # Si
9    9    1    0.862610554508812        13.198140701202954       0.0                     # Si
10   10   1    2.5879312721355014       13.198140701202954       0.0                     # Si
11   11   1    4.313152381153126        13.198140701202954       0.0                     # Si
12   12   1    6.038473098779815        13.198140701202954       0.0                     # Si
13   13   1    7.763694207797439        13.198140701202954       0.0                     # Si
14   14   1    9.48901492542413         13.198140701202954       0.0                     # Si
15   15   1    11.214236034441752       13.198140701202954       0.0                     # Si
16   16   1    12.939556752068441       13.198140701202954       0.0                     # Si
17   17   1    15.527488024203944       13.696183746531368       0.0                     # Si
18   18   1    17.25270913322157        13.696183746531368       0.0                     # Si
19   19   1    18.97802985084826        13.696183746531368       0.0                     # Si
20   20   1    20.703250959865883       13.696183746531368       0.0                     # Si
21   21   1    22.42857167749257        13.696183746531368       0.0                     # Si
22   22   1    24.153792786510195       13.696183746531368       0.0                     # Si
23   23   1    25.879113504136882       13.696183746531368       0.0                     # Si
24   24   1    27.60433461315451        13.696183746531368       0.0                     # Si
25   25   1    1.7253207176266896       13.696183746531368       0.0                     # Si
26   26   1    3.4505418266443137       13.696183746531368       0.0                     # Si
27   27   1    5.175862544271003        13.696183746531368       0.0                     # Si
28   28   1    6.9010836532886275       13.696183746531368       0.0                     # Si
29   29   1    8.626404370915315        13.696183746531368       0.0                     # Si
30   30   1    10.351625479932942       13.696183746531368       0.0                     # Si
31   31   1    12.07694619755963        13.696183746531368       0.0                     # Si
32   32   1    15.527488024203944       14.692269837188194       0.0                     # Si
33   33   1    17.25270913322157        14.692269837188194       0.0                     # Si
34   34   1    18.97802985084826        14.692269837188194       0.0                     # Si
35   35   1    20.703250959865883       14.692269837188194       0.0                     # Si
36   36   1    22.42857167749257        14.692269837188194       0.0                     # Si
37   37   1    24.153792786510195       14.692269837188194       0.0                     # Si
38   38   1    25.879113504136882       14.692269837188194       0.0                     # Si
39   39   1    27.60433461315451        14.692269837188194       0.0                     # Si
40   40   1    1.7253207176266896       14.692269837188194       0.0                     # Si
41   41   1    3.4505418266443137       14.692269837188194       0.0                     # Si
42   42   1    5.175862544271003        14.692269837188194       0.0                     # Si
43   43   1    6.9010836532886275       14.692269837188194       0.0                     # Si
44   44   1    8.626404370915315        14.692269837188194       0.0                     # Si
45   45   1    10.351625479932942       14.692269837188194       0.0                     # Si
46   46   1    12.07694619755963        14.692269837188194       0.0                     # Si
47   47   1    16.390098578712756       15.190312882516608       0.0                     # Si
48   48   1    18.115319687730377       15.190312882516608       0.0                     # Si
49   49   1    19.84064040535707        15.190312882516608       0.0                     # Si
50   50   1    21.565861514374692       15.190312882516608       0.0                     # Si
51   51   1    23.291182232001383       15.190312882516608       0.0                     # Si
52   52   1    25.016403341019007       15.190312882516608       0.0                     # Si
53   53   1    26.741724058645698       15.190312882516608       0.0                     # Si
54   54   1    0.862610554508812        15.190312882516608       0.0                     # Si
55   55   1    2.5879312721355014       15.190312882516608       0.0                     # Si
56   56   1    4.313152381153126        15.190312882516608       0.0                     # Si
57   57   1    6.038473098779815        15.190312882516608       0.0                     # Si
58   58   1    7.763694207797439        15.190312882516608       0.0                     # Si
59   59   1    9.48901492542413         15.190312882516608       0.0                     # Si
60   60   1    11.214236034441752       15.190312882516608       0.0                     # Si
61   61   1    14.664777861086066       16.186398973173436       0.0                     # Si
62   62   1    16.390098578712756       16.186398973173436       0.0                     # Si
63   63   1    18.115319687730377       16.186398973173436       0.0                     # Si
64   64   1    19.84064040535707        16.186398973173436       0.0                     # Si
65   65   1    21.565861514374692       16.186398973173436       0.0                     # Si
66   66   1    23.291182232001383       16.186398973173436       0.0                     # Si
67   67   1    25.016403341019007       16.186398973173436       0.0                     # Si
68   68   1    26.741724058645698       16.186398973173436       0.0                     # Si
69   69   1    0.862610554508812        16.186398973173436       0.0                     # Si
70   70   1    2.5879312721355014       16.186398973173436       0.0                     # Si
71   71   1    4.313152381153126        16.186398973173436       0.0                     # Si
72   72   1    6.038473098779815        16.186398973173436       0.0                     # Si
73   73   1    7.763694207797439        16.186398973173436       0.0                     # Si
74   74   1    9.48901492542413         16.186398973173436       0.0                     # Si
75   75   1    11.214236034441752       16.186398973173436       0.0                     # Si
76   76   1    12.939556752068441       16.186398973173436       0.0                     # Si
77   77   1    13.802167306577255       16.684442018501848       0.0                     # Si
78   78   1    15.527488024203944       16.684442018501848       0.0                     # Si
79   79   1    17.25270913322157        16.684442018501848       0.0                     # Si
80   80   1    18.97802985084826        16.684442018501848       0.0                     # Si
81   81   1    20.703250959865883       16.684442018501848       0.0                     # Si
82   82   1    22.42857167749257        16.684442018501848       0.0                     # Si
83   83   1    24.153792786510195       16.684442018501848       0.0                     # Si
84   84   1    25.879113504136882       16.684442018501848       0.0                     # Si
85   85   1    27.60433461315451        16.684442018501848       0.0                     # Si
86   86   1    1.7253207176266896       16.684442018501848       0.0                     # Si
87   87   1    3.4505418266443137       16.684442018501848       0.0                     # Si
88   88   1    5.175862544271003        16.684442018501848       0.0                     # Si
89   89   1    6.9010836532886275       16.684442018501848       0.0                     # Si
90   90   1    8.626404370915315        16.684442018501848       0.0                     # Si
91   91   1    10.351625479932942       16.684442018501848       0.0                     # Si
92   92   1    12.07694619755963        16.684442018501848       0.0                     # Si
93   93   1    15.527488024203944       17.680528109158676       0.0                     # Si
94   94   1    17.25270913322157        17.680528109158676       0.0                     # Si
95   95   1    18.97802985084826        17.680528109158676       0.0                     # Si
96   96   1    20.703250959865883       17.680528109158676       0.0                     # Si
97   97   1    22.42857167749257        17.680528109158676       0.0                     # Si
98   98   1    24.153792786510195       17.680528109158676       0.0                     # Si
99   99   1    25.879113504136882       17.680528109158676       0.0                     # Si
100  100  1    27.60433461315451        17.680528109158676       0.0                     # Si
101  101  1    1.7253207176266896       17.680528109158676       0.0                     # Si
102  102  1    3.4505418266443137       17.680528109158676       0.0                     # Si
103  103  1    5.175862544271003        17.680528109158676       0.0                     # Si
104  104  1    6.9010836532886275       17.680528109158676       0.0                     # Si
105  105  1    8.626404370915315        17.680528109158676       0.0                     # Si
106  106  1    10.351625479932942       17.680528109158676       0.0                     # Si
107  107  1    12.07694619755963        17.680528109158676       0.0                     # Si
108  108  1    13.802167306577255       17.680528109158676       0.0                     # Si
109  109  1    14.664777861086066       18.178571154487088       0.0                     # Si
110  110  1    16.390098578712756       18.178571154487088       0.0                     # Si
111  111  1    18.115319687730377       18.178571154487088       0.0                     # Si
112  112  1    19.84064040535707        18.178571154487088       0.0                     # Si
113  113  1    21.565861514374692       18.178571154487088       0.0                     # Si
114  114  1    23.291182232001383       18.178571154487088       0.0                     # Si
115  115  1    25.016403341019007       18.178571154487088       0.0                     # Si
116  116  1    26.741724058645698       18.178571154487088       0.0                     # Si
117  117  1    0.862610554508812        18.178571154487088       0.0                     # Si
118  118  1    2.5879312721355014       18.178571154487088       0.0                     # Si
119  119  1    4.313152381153126        18.178571154487088       0.0                     # Si
120  120  1    6.038473098779815        18.178571154487088       0.0                     # Si
121  121  1    7.763694207797439        18.178571154487088       0.0                     # Si
122  122  1    9.48901492542413         18.178571154487088       0.0                     # Si
123  123  1    11.214236034441752       18.178571154487088       0.0                     # Si
124  124  1    12.939556752068441       18.178571154487088       0.0                     # Si
125  125  1    14.664777861086066       19.174657245143916       0.0                     # Si
126  126  1    16.390098578712756       19.174657245143916       0.0                     # Si
127  127  1    18.115319687730377       19.174657245143916       0.0                     # Si
128  128  1    19.84064040535707        19.174657245143916       0.0                     # Si
129  129  1    21.565861514374692       19.174657245143916       0.0                     # Si
130  130  1    23.291182232001383       19.174657245143916       0.0                     # Si
131  131  1    25.016403341019007       19.174657245143916       0.0                     # Si
132  132  1    26.741724058645698       19.174657245143916       0.0                     # Si
133  133  1    0.862610554508812        19.174657245143916       0.0                     # Si
134  134  1    2.5879312721355014       19.174657245143916       0.0                     # Si
135  135  1    4.313152381153126        19.174657245143916       0.0                     # Si
136  136  1    6.038473098779815        19.174657245143916       0.0                     # Si
137  137  1    7.763694207797439        19.174657245143916       0.0                     # Si
138  138  1    9.48901492542413         19.174657245143916       0.0                     # Si
139  139  1    11.214236034441752       19.174657245143916       0.0                     # Si
140  140  1    12.939556752068441       19.174657245143916       0.0                     # Si
141  141  1    13.802167306577255       19.672700290472328       0.0                     # Si
142  142  1    15.527488024203944       19.672700290472328       0.0                     # Si
143  143  1    17.25270913322157        19.672700290472328       0.0                     # Si
144  144  1    18.97802985084826        19.672700290472328       0.0                     # Si
145  145  1    20.703250959865883       19.672700290472328       0.0                     # Si
146  146  1    22.42857167749257        19.672700290472328       0.0                     # Si
147  147  1    24.153792786510195       19.672700290472328       0.0                     # Si
148  148  1    25.879113504136882       19.672700290472328       0.0                     # Si
149  149  1    27.60433461315451        19.672700290472328       0.0                     # Si
150  150  1    1.7253207176266896       19.672700290472328       0.0                     # Si
151  151  1    3.4505418266443137       19.672700290472328       0.0                     # Si
152  152  1    5.175862544271003        19.672700290472328       0.0                     # Si
153  153  1    6.9010836532886275       19.672700290472328       0.0                     # Si
154  154  1    8.626404370915315        19.672700290472328       0.0                     # Si
155  155  1    10.351625479932942       19.672700290472328       0.0                     # Si
156  156  1    12.07694619755963        19.672700290472328       0.0                     # Si
157  157  1    15.527488024203944       20.668786381129156       0.0                     # Si
158  158  1    17.25270913322157        20.668786381129156       0.0                     # Si
159  159  1    18.97802985084826        20.668786381129156       0.0                     # Si
160  160  1    20.703250959865883       20.668786381129156       0.0                     # Si
161  161  1    22.42857167749257        20.668786381129156       0.0                     # Si
162  162  1    24.153792786510195       20.668786381129156       0.0                     # Si
163  163  1    25.879113504136882       20.668786381129156       0.0                     # Si
164  164  1    27.60433461315451        20.668786381129156       0.0                     # Si
165  165  1    1.7253207176266896       20.668786381129156       0.0                     # Si
166  166  1    3.4505418266443137       20.668786381129156       0.0                     # Si
167  167  1    5.175862544271003        20.668786381129156       0.0                     # Si
168  168  1    6.9010836532886275       20.668786381129156       0.0                     # Si
169  169  1    8.626404370915315        20.668786381129156       0.0                     # Si
170  170  1    10.351625479932942       20.668786381129156       0.0                     # Si
171  171  1    12.07694619755963        20.668786381129156       0.0                     # Si
172  172  1    13.802167306577255       20.668786381129156       0.0                     # Si
173  173  1    14.664777861086066       21.166829426457568       0.0                     # Si
174  174  1    16.390098578712756       21.166829426457568       0.0                     # Si
175  175  1    18.115319687730377       21.166829426457568       0.0                     # Si
176  176  1    19.84064040535707        21.166829426457568       0.0                     # Si
177  177  1    21.565861514374692       21.166829426457568       0.0                     # Si
178  178  1    23.291182232001383       21.166829426457568       0.0                     # Si
179  179  1    25.016403341019007       21.166829426457568       0.0                     # Si
180  180  1    26.741724058645698       21.166829426457568       0.0                     # Si
181  181  1    0.862610554508812        21.166829426457568       0.0                     # Si
182  182  1    2.5879312721355014       21.166829426457568       0.0                     # Si
183  183  1    4.313152381153126        21.166829426457568       0.0                     # Si
184  184  1    6.038473098779815        21.166829426457568       0.0                     # Si
185  185  1    7.763694207797439        21.166829426457568       0.0                     # Si
186  186  1    9.48901492542413         21.166829426457568       0.0                     # Si
187  187  1    11.214236034441752       21.166829426457568       0.0                     # Si
188  188  1    12.939556752068441       21.166829426457568       0.0                     # Si
189  189  1    14.664777861086066       22.162915517114396       0.0                     # Si
190  190  1    16.390098578712756       22.162915517114396       0.0                     # Si
191  191  1    18.115319687730377       22.162915517114396       0.0                     # Si
192  192  1    19.84064040535707        22.162915517114396       0.0                     # Si
193  193  1    21.565861514374692       22.162915517114396       0.0                     # Si
194  194  1    23.291182232001383       22.162915517114396       0.0                     # Si
195  195  1    25.016403341019007       22.162915517114396       0.0                     # Si
196  196  1    26.741724058645698       22.162915517114396       0.0                     # Si
197  197  1    0.862610554508812        22.162915517114396       0.0                     # Si
198  198  1    2.5879312721355014       22.162915517114396       0.0                     # Si
199  199  1    4.313152381153126        22.162915517114396       0.0                     # Si
200  200  1    6.038473098779815        22.162915517114396       0.0                     # Si
201  201  1    7.763694207797439        22.162915517114396       0.0                     # Si
202  202  1    9.48901492542413         22.162915517114396       0.0                     # Si
203  203  1    11.214236034441752       22.162915517114396       0.0                     # Si
204  204  1    12.939556752068441       22.162915517114396       0.0                     # Si
205  205  1    13.802167306577255       22.660958562442808       0.0                     # Si
206  206  1    15.527488024203944       22.660958562442808       0.0                     # Si
207  207  1    17.25270913322157        22.660958562442808       0.0                     # Si
208  208  1    18.97802985084826        22.660958562442808       0.0                     # Si
209  209  1    20.703250959865883       22.660958562442808       0.0                     # Si
210  210  1    22.42857167749257        22.660958562442808       0.0                     # Si
211  211  1    24.153792786510195       22.660958562442808       0.0                     # Si
212  212  1    25.879113504136882       22.660958562442808       0.0                     # Si
213  213  1    27.60433461315451        22.660958562442808       0.0                     # Si
214  214  1    1.7253207176266896       22.660958562442808       0.0                     # Si
215  215  1    3.4505418266443137       22.660958562442808       0.0                     # Si
216  216  1    5.175862544271003        22.660958562442808       0.0                     # Si
217  217  1    6.9010836532886275       22.660958562442808       0.0                     # Si
218  218  1    8.626404370915315        22.660958562442808       0.0                     # Si
219  219  1    10.351625479932942       22.660958562442808       0.0                     # Si
220  220  1    12.07694619755963        22.660958562442808       0.0                     # Si
221  221  1    15.527488024203944       23.657044653099636       0.0                     # Si
222  222  1    17.25270913322157        23.657044653099636       0.0                     # Si
223  223  1    18.97802985084826        23.657044653099636       0.0                     # Si
224  224  1    20.703250959865883       23.657044653099636       0.0                     # Si
225  225  1    22.42857167749257        23.657044653099636       0.0                     # Si
226  226  1    24.153792786510195       23.657044653099636       0.0                     # Si
227  227  1    25.879113504136882       23.657044653099636       0.0                     # Si
228  228  1    27.60433461315451        23.657044653099636       0.0                     # Si
229  229  1    1.7253207176266896       23.657044653099636       0.0                     # Si
230  230  1    3.4505418266443137       23.657044653099636       0.0                     # Si
231  231  1    5.175862544271003        23.657044653099636       0.0                     # Si
232  232  1    6.9010836532886275       23.657044653099636       0.0                     # Si
233  233  1    8.626404370915315        23.657044653099636       0.0                     # Si
234  234  1    10.351625479932942       23.657044653099636       0.0                     # Si
235  235  1    12.07694619755963        23.657044653099636       0.0                     # Si
236  236  1    13.802167306577255       23.657044653099636       0.0                     # Si
237  237  1    14.664777861086066       0.24902152266420668      0.0                     # Si
238  238  1    16.390098578712756       0.24902152266420668      0.0                     # Si
239  239  1    18.115319687730377       0.24902152266420668      0.0                     # Si
240  240  1    19.84064040535707        0.24902152266420668      0.0                     # Si
241  241  1    21.565861514374692       0.24902152266420668      0.0                     # Si
242  242  1    23.291182232001383       0.24902152266420668      0.0                     # Si
243  243  1    25.016403341019007       0.24902152266420668      0.0                     # Si
244  244  1    26.741724058645698       0.24902152266420668      0.0                     # Si
245  245  1    0.862610554508812        0.24902152266420668      0.0                     # Si
246  246  1    2.5879312721355014       0.24902152266420668      0.0                     # Si
247  247  1    4.313152381153126        0.24902152266420668      0.0                     # Si
248  248  1    6.038473098779815        0.24902152266420668      0.0                     # Si
249  249  1    7.763694207797439        0.24902152266420668      0.0                     # Si
250  250  1    9.48901492542413         0.24902152266420668      0.0                     # Si
251  251  1    11.214236034441752       0.24902152266420668      0.0                     # Si
252  252  1    12.939556752068441       0.24902152266420668      0.0                     # Si
253  253  1    14.664777861086066       1.2451076133210335       0.0                     # Si
254  254  1    16.390098578712756       1.2451076133210335       0.0                     # Si
255  255  1    18.115319687730377       1.2451076133210335       0.0                     # Si
256  256  1    19.84064040535707        1.2451076133210335       0.0                     # Si
257  257  1    21.565861514374692       1.2451076133210335       0.0                     # Si
258  258  1    23.291182232001383       1.2451076133210335       0.0                     # Si
259  259  1    25.016403341019007       1.2451076133210335       0.0                     # Si
260  260  1    26.741724058645698       1.2451076133210335       0.0                     # Si
261  261  1    0.862610554508812        1.2451076133210335       0.0                     # Si
262  262  1    2.5879312721355014       1.2451076133210335       0.0                     # Si
263  263  1    4.313152381153126        1.2451076133210335       0.0                     # Si
264  264  1    6.038473098779815        1.2451076133210335       0.0                     # Si
265  265  1    7.763694207797439        1.2451076133210335       0.0                     # Si
266  266  1    9.48901492542413         1.2451076133210335       0.0                     # Si
267  267  1    11.214236034441752       1.2451076133210335       0.0                     # Si
268  268  1    12.939556752068441       1.2451076133210335       0.0                     # Si
269  269  1    13.802167306577255       1.7431506586494467       0.0                     # Si
270  270  1    15.527488024203944       1.7431506586494467       0.0                     # Si
271  271  1    17.25270913322157        1.7431506586494467       0.0                     # Si
272  272  1    18.97802985084826        1.7431506586494467       0.0                     # Si
273  273  1    20.703250959865883       1.7431506586494467       0.0                     # Si
274  274  1    22.42857167749257        1.7431506586494467       0.0                     # Si
275  275  1    24.153792786510195       1.7431506586494467       0.0                     # Si
276  276  1    25.879113504136882       1.7431506586494467       0.0                     # Si
277  277  1    27.60433461315451        1.7431506586494467       0.0                     # Si
278  278  1    1.7253207176266896       1.7431506586494467       0.0                     # Si
279  279  1    3.4505418266443137       1.7431506586494467       0.0                     # Si
280  280  1    5.175862544271003        1.7431506586494467       0.0                     # Si
281  281  1    6.9010836532886275       1.7431506586494467       0.0                     # Si
282  282  1    8.626404370915315        1.7431506586494467       0.0                     # Si
283  283  1    10.351625479932942       1.7431506586494467       0.0                     # Si
284  284  1    12.07694619755963        1.7431506586494467       0.0                     # Si
285  285  1    15.527488024203944       2.7392367493062735       0.0                     # Si
286  286  1    17.25270913322157        2.7392367493062735       0.0                     # Si
287  287  1    18.97802985084826        2.7392367493062735       0.0                     # Si
288  288  1    20.703250959865883       2.7392367493062735       0.0                     # Si
289  289  1    22.42857167749257        2.7392367493062735       0.0                     # Si
290  290  1    24.153792786510195       2.7392367493062735       0.0                     # Si
291  291  1    25.879113504136882       2.7392367493062735       0.0                     # Si
292  292  1    27.60433461315451        2.7392367493062735       0.0                     # Si
293  293  1    1.7253207176266896       2.7392367493062735       0.0                     # Si
294  294  1    3.4505418266443137       2.7392367493062735       0.0                     # Si
295  295  1    5.175862544271003        2.7392367493062735       0.0                     # Si
296  296  1    6.9010836532886275       2.7392367493062735       0.0                     # Si
297  297  1    8.626404370915315        2.7392367493062735       0.0                     # Si
298  298  1    10.351625479932942       2.7392367493062735       0.0                     # Si
299  299  1    12.07694619755963        2.7392367493062735       0.0                     # Si
300  300  1    13.802167306577255       2.7392367493062735       0.0                     # Si
301  301  1    14.664777861086066       3.237279794634687        0.0                     # Si
302  302  1    16.390098578712756       3.237279794634687        0.0                     # Si
303  303  1    18.115319687730377       3.237279794634687        0.0                     # Si
304  304  1    19.84064040535707        3.237279794634687        0.0                     # Si
305  305  1    21.565861514374692       3.237279794634687        0.0                     # Si
306  306  1    23.291182232001383       3.237279794634687        0.0                     # Si
307  307  1    25.016403341019007       3.237279794634687        0.0                     # Si
308  308  1    26.741724058645698       3.237279794634687        0.0                     # Si
309  309  1    0.862610554508812        3.237279794634687        0.0                     # Si
310  310  1    2.5879312721355014       3.237279794634687        0.0                     # Si
311  311  1    4.313152381153126        3.237279794634687        0.0                     # Si
312  312  1    6.038473098779815        3.237279794634687        0.0                     # Si
313  313  1    7.763694207797439        3.237279794634687        0.0                     # Si
314  314  1    9.48901492542413         3.237279794634687        0.0                     # Si
315  315  1    11.214236034441752       3.237279794634687        0.0                     # Si