DATA FILE Produced from netmc results (cf David Morley)
1270 atoms
3048 bonds
0 angles
0 dihedrals
0 impropers
2 atom types
2 bond types
0 angle types
0 dihedral types
0 improper types
0.00000 158.26545566690103 xlo xhi
0.00000 137.06190475884293 ylo yhi

# Pair Coeffs
#
# 1  O
# 2  Si

# Bond Coeffs
# 
# 1  O-O
# 2  Si-O
# 3  O-O rep
# 4  Si-Si rep

 Masses

1 28.10000 # O 
2 32.01000 # Si

 Atoms # molecular

1    1    2    84.07834110923288        75.66959325227786        5.0                      # Si
2    2    2    93.97021299393255        75.66959325227786        5.0                      # Si
3    3    2    103.86151378736236       75.66959325227786        5.0                      # Si
4    4    2    113.75338567206205       75.66959325227786        5.0                      # Si
5    5    2    123.64468646549186       75.66959325227786        5.0                      # Si
6    6    2    133.53655835019154       75.66959325227786        5.0                      # Si
7    7    2    143.42785914362136       75.66959325227786        5.0                      # Si
8    8    2    153.31973102832103       75.66959325227786        5.0                      # Si
9    9    2    4.945650396714916        75.66959325227786        5.0                      # Si
10   10   2    14.837522281414575       75.66959325227786        5.0                      # Si
11   11   2    24.72882307484441        75.66959325227786        5.0                      # Si
12   12   2    34.62069495954407        75.66959325227786        5.0                      # Si
13   13   2    44.5119957529739         75.66959325227786        5.0                      # Si
14   14   2    54.403867637673564       75.66959325227786        5.0                      # Si
15   15   2    64.29516843110339        75.66959325227786        5.0                      # Si
16   16   2    74.18704031580305        75.66959325227786        5.0                      # Si
17   17   2    89.02456259721762        78.52504960142043        5.0                      # Si
18   18   2    98.91586339064746        78.52504960142043        5.0                      # Si
19   19   2    108.80773527534713       78.52504960142043        5.0                      # Si
20   20   2    118.69903606877696       78.52504960142043        5.0                      # Si
21   21   2    128.5909079534766        78.52504960142043        5.0                      # Si
22   22   2    138.48220874690645       78.52504960142043        5.0                      # Si
23   23   2    148.3740806316061        78.52504960142043        5.0                      # Si
24   24   2    158.26538142503594       78.52504960142043        5.0                      # Si
25   25   2    9.89187188469966         78.52504960142043        5.0                      # Si
26   26   2    19.783172678129493       78.52504960142043        5.0                      # Si
27   27   2    29.67504456282915        78.52504960142043        5.0                      # Si
28   28   2    39.566345356258985       78.52504960142043        5.0                      # Si
29   29   2    49.45821724095864        78.52504960142043        5.0                      # Si
30   30   2    59.34951803438848        78.52504960142043        5.0                      # Si
31   31   2    69.24138991908814        78.52504960142043        5.0                      # Si
32   32   2    89.02456259721762        84.23596229970555        5.0                      # Si
33   33   2    98.91586339064746        84.23596229970555        5.0                      # Si
34   34   2    108.80773527534713       84.23596229970555        5.0                      # Si
35   35   2    118.69903606877696       84.23596229970555        5.0                      # Si
36   36   2    128.5909079534766        84.23596229970555        5.0                      # Si
37   37   2    138.48220874690645       84.23596229970555        5.0                      # Si
38   38   2    148.3740806316061        84.23596229970555        5.0                      # Si
39   39   2    158.26538142503594       84.23596229970555        5.0                      # Si
40   40   2    9.89187188469966         84.23596229970555        5.0                      # Si
41   41   2    19.783172678129493       84.23596229970555        5.0                      # Si
42   42   2    29.67504456282915        84.23596229970555        5.0                      # Si
43   43   2    39.566345356258985       84.23596229970555        5.0                      # Si
44   44   2    49.45821724095864        84.23596229970555        5.0                      # Si
45   45   2    59.34951803438848        84.23596229970555        5.0                      # Si
46   46   2    69.24138991908814        84.23596229970555        5.0                      # Si
47   47   2    93.97021299393255        87.09141864884812        5.0                      # Si
48   48   2    103.86151378736236       87.09141864884812        5.0                      # Si
49   49   2    113.75338567206205       87.09141864884812        5.0                      # Si
50   50   2    123.64468646549186       87.09141864884812        5.0                      # Si
51   51   2    133.53655835019154       87.09141864884812        5.0                      # Si
52   52   2    143.42785914362136       87.09141864884812        5.0                      # Si
53   53   2    153.31973102832103       87.09141864884812        5.0                      # Si
54   54   2    4.945650396714916        87.09141864884812        5.0                      # Si
55   55   2    14.837522281414575       87.09141864884812        5.0                      # Si
56   56   2    24.72882307484441        87.09141864884812        5.0                      # Si
57   57   2    34.62069495954407        87.09141864884812        5.0                      # Si
58   58   2    44.5119957529739         87.09141864884812        5.0                      # Si
59   59   2    54.403867637673564       87.09141864884812        5.0                      # Si
60   60   2    64.29516843110339        87.09141864884812        5.0                      # Si
61   61   2    84.07834110923288        92.80233134713325        5.0                      # Si
62   62   2    93.97021299393255        92.80233134713325        5.0                      # Si
63   63   2    103.86151378736236       92.80233134713325        5.0                      # Si
64   64   2    113.75338567206205       92.80233134713325        5.0                      # Si
65   65   2    123.64468646549186       92.80233134713325        5.0                      # Si
66   66   2    133.53655835019154       92.80233134713325        5.0                      # Si
67   67   2    143.42785914362136       92.80233134713325        5.0                      # Si
68   68   2    153.31973102832103       92.80233134713325        5.0                      # Si
69   69   2    4.945650396714916        92.80233134713325        5.0                      # Si
70   70   2    14.837522281414575       92.80233134713325        5.0                      # Si
71   71   2    24.72882307484441        92.80233134713325        5.0                      # Si
72   72   2    34.62069495954407        92.80233134713325        5.0                      # Si
73   73   2    44.5119957529739         92.80233134713325        5.0                      # Si
74   74   2    54.403867637673564       92.80233134713325        5.0                      # Si
75   75   2    64.29516843110339        92.80233134713325        5.0                      # Si
76   76   2    74.18704031580305        92.80233134713325        5.0                      # Si
77   77   2    79.13269071251797        95.65778769627579        5.0                      # Si
78   78   2    89.02456259721762        95.65778769627579        5.0                      # Si
79   79   2    98.91586339064746        95.65778769627579        5.0                      # Si
80   80   2    108.80773527534713       95.65778769627579        5.0                      # Si
81   81   2    118.69903606877696       95.65778769627579        5.0                      # Si
82   82   2    128.5909079534766        95.65778769627579        5.0                      # Si
83   83   2    138.48220874690645       95.65778769627579        5.0                      # Si
84   84   2    148.3740806316061        95.65778769627579        5.0                      # Si
85   85   2    158.26538142503594       95.65778769627579        5.0                      # Si
86   86   2    9.89187188469966         95.65778769627579        5.0                      # Si
87   87   2    19.783172678129493       95.65778769627579        5.0                      # Si
88   88   2    29.67504456282915        95.65778769627579        5.0                      # Si
89   89   2    39.566345356258985       95.65778769627579        5.0                      # Si
90   90   2    49.45821724095864        95.65778769627579        5.0                      # Si
91   91   2    59.34951803438848        95.65778769627579        5.0                      # Si
92   92   2    69.24138991908814        95.65778769627579        5.0                      # Si
93   93   2    89.02456259721762        101.36870039456093       5.0                      # Si
94   94   2    98.91586339064746        101.36870039456093       5.0                      # Si
95   95   2    108.80773527534713       101.36870039456093       5.0                      # Si
96   96   2    118.69903606877696       101.36870039456093       5.0                      # Si
97   97   2    128.5909079534766        101.36870039456093       5.0                      # Si
98   98   2    138.48220874690645       101.36870039456093       5.0                      # Si
99   99   2    148.3740806316061        101.36870039456093       5.0                      # Si
100  100  2    158.26538142503594       101.36870039456093       5.0                      # Si
101  101  2    9.89187188469966         101.36870039456093       5.0                      # Si
102  102  2    19.783172678129493       101.36870039456093       5.0                      # Si
103  103  2    29.67504456282915        101.36870039456093       5.0                      # Si
104  104  2    39.566345356258985       101.36870039456093       5.0                      # Si
105  105  2    49.45821724095864        101.36870039456093       5.0                      # Si
106  106  2    59.34951803438848        101.36870039456093       5.0                      # Si
107  107  2    69.24138991908814        101.36870039456093       5.0                      # Si
108  108  2    79.13269071251797        101.36870039456093       5.0                      # Si
109  109  2    84.07834110923288        104.22415674370347       5.0                      # Si
110  110  2    93.97021299393255        104.22415674370347       5.0                      # Si
111  111  2    103.86151378736236       104.22415674370347       5.0                      # Si
112  112  2    113.75338567206205       104.22415674370347       5.0                      # Si
113  113  2    123.64468646549186       104.22415674370347       5.0                      # Si
114  114  2    133.53655835019154       104.22415674370347       5.0                      # Si
115  115  2    143.42785914362136       104.22415674370347       5.0                      # Si
116  116  2    153.31973102832103       104.22415674370347       5.0                      # Si
117  117  2    4.945650396714916        104.22415674370347       5.0                      # Si
118  118  2    14.837522281414575       104.22415674370347       5.0                      # Si
119  119  2    24.72882307484441        104.22415674370347       5.0                      # Si
120  120  2    34.62069495954407        104.22415674370347       5.0                      # Si
121  121  2    44.5119957529739         104.22415674370347       5.0                      # Si
122  122  2    54.403867637673564       104.22415674370347       5.0                      # Si
123  123  2    64.29516843110339        104.22415674370347       5.0                      # Si
124  124  2    74.18704031580305        104.22415674370347       5.0                      # Si
125  125  2    84.07834110923288        109.9350694419886        5.0                      # Si
126  126  2    93.97021299393255        109.9350694419886        5.0                      # Si
127  127  2    103.86151378736236       109.9350694419886        5.0                      # Si
128  128  2    113.75338567206205       109.9350694419886        5.0                      # Si
129  129  2    123.64468646549186       109.9350694419886        5.0                      # Si
130  130  2    133.53655835019154       109.9350694419886        5.0                      # Si
131  131  2    143.42785914362136       109.9350694419886        5.0                      # Si
132  132  2    153.31973102832103       109.9350694419886        5.0                      # Si
133  133  2    4.945650396714916        109.9350694419886        5.0                      # Si
134  134  2    14.837522281414575       109.9350694419886        5.0                      # Si
135  135  2    24.72882307484441        109.9350694419886        5.0                      # Si
136  136  2    34.62069495954407        109.9350694419886        5.0                      # Si
137  137  2    44.5119957529739         109.9350694419886        5.0                      # Si
138  138  2    54.403867637673564       109.9350694419886        5.0                      # Si
139  139  2    64.29516843110339        109.9350694419886        5.0                      # Si
140  140  2    74.18704031580305        109.9350694419886        5.0                      # Si
141  141  2    79.13269071251797        112.79052579113116       5.0                      # Si
142  142  2    89.02456259721762        112.79052579113116       5.0                      # Si
143  143  2    98.91586339064746        112.79052579113116       5.0                      # Si
144  144  2    108.80773527534713       112.79052579113116       5.0                      # Si
145  145  2    118.69903606877696       112.79052579113116       5.0                      # Si
146  146  2    128.5909079534766        112.79052579113116       5.0                      # Si
147  147  2    138.48220874690645       112.79052579113116       5.0                      # Si
148  148  2    148.3740806316061        112.79052579113116       5.0                      # Si
149  149  2    158.26538142503594       112.79052579113116       5.0                      # Si
150  150  2    9.89187188469966         112.79052579113116       5.0                      # Si
151  151  2    19.783172678129493       112.79052579113116       5.0                      # Si
152  152  2    29.67504456282915        112.79052579113116       5.0                      # Si
153  153  2    39.566345356258985       112.79052579113116       5.0                      # Si
154  154  2    49.45821724095864        112.79052579113116       5.0                      # Si
155  155  2    59.34951803438848        112.79052579113116       5.0                      # Si
156  156  2    69.24138991908814        112.79052579113116       5.0                      # Si
157  157  2    89.02456259721762        118.50143848941629       5.0                      # Si
158  158  2    98.91586339064746        118.50143848941629       5.0                      # Si
159  159  2    108.80773527534713       118.50143848941629       5.0                      # Si
160  160  2    118.69903606877696       118.50143848941629       5.0                      # Si
161  161  2    128.5909079534766        118.50143848941629       5.0                      # Si
162  162  2    138.48220874690645       118.50143848941629       5.0                      # Si
163  163  2    148.3740806316061        118.50143848941629       5.0                      # Si
164  164  2    158.26538142503594       118.50143848941629       5.0                      # Si
165  165  2    9.89187188469966         118.50143848941629       5.0                      # Si
166  166  2    19.783172678129493       118.50143848941629       5.0                      # Si
167  167  2    29.67504456282915        118.50143848941629       5.0                      # Si
168  168  2    39.566345356258985       118.50143848941629       5.0                      # Si
169  169  2    49.45821724095864        118.50143848941629       5.0                      # Si
170  170  2    59.34951803438848        118.50143848941629       5.0                      # Si
171  171  2    69.24138991908814        118.50143848941629       5.0                      # Si
172  172  2    79.13269071251797        118.50143848941629       5.0                      # Si
173  173  2    84.07834110923288        121.35689483855884       5.0                      # Si
174  174  2    93.97021299393255        121.35689483855884       5.0                      # Si
175  175  2    103.86151378736236       121.35689483855884       5.0                      # Si
176  176  2    113.75338567206205       121.35689483855884       5.0                      # Si
177  177  2    123.64468646549186       121.35689483855884       5.0                      # Si
178  178  2    133.53655835019154       121.35689483855884       5.0                      # Si
179  179  2    143.42785914362136       121.35689483855884       5.0                      # Si
180  180  2    153.31973102832103       121.35689483855884       5.0                      # Si
181  181  2    4.945650396714916        121.35689483855884       5.0                      # Si
182  182  2    14.837522281414575       121.35689483855884       5.0                      # Si
183  183  2    24.72882307484441        121.35689483855884       5.0                      # Si
184  184  2    34.62069495954407        121.35689483855884       5.0                      # Si
185  185  2    44.5119957529739         121.35689483855884       5.0                      # Si
186  186  2    54.403867637673564       121.35689483855884       5.0                      # Si
187  187  2    64.29516843110339        121.35689483855884       5.0                      # Si
188  188  2    74.18704031580305        121.35689483855884       5.0                      # Si
189  189  2    84.07834110923288        127.06780753684397       5.0                      # Si
190  190  2    93.97021299393255        127.06780753684397       5.0                      # Si
191  191  2    103.86151378736236       127.06780753684397       5.0                      # Si
192  192  2    113.75338567206205       127.06780753684397       5.0                      # Si
193  193  2    123.64468646549186       127.06780753684397       5.0                      # Si
194  194  2    133.53655835019154       127.06780753684397       5.0                      # Si
195  195  2    143.42785914362136       127.06780753684397       5.0                      # Si
196  196  2    153.31973102832103       127.06780753684397       5.0                      # Si
197  197  2    4.945650396714916        127.06780753684397       5.0                      # Si
198  198  2    14.837522281414575       127.06780753684397       5.0                      # Si
199  199  2    24.72882307484441        127.06780753684397       5.0                      # Si
200  200  2    34.62069495954407        127.06780753684397       5.0                      # Si
201  201  2    44.5119957529739         127.06780753684397       5.0                      # Si
202  202  2    54.403867637673564       127.06780753684397       5.0                      # Si
203  203  2    64.29516843110339        127.06780753684397       5.0                      # Si
204  204  2    74.18704031580305        127.06780753684397       5.0                      # Si
205  205  2    79.13269071251797        129.92326388598653       5.0                      # Si
206  206  2    89.02456259721762        129.92326388598653       5.0                      # Si
207  207  2    98.91586339064746        129.92326388598653       5.0                      # Si
208  208  2    108.80773527534713       129.92326388598653       5.0                      # Si
209  209  2    118.69903606877696       129.92326388598653       5.0                      # Si
210  210  2    128.5909079534766        129.92326388598653       5.0                      # Si
211  211  2    138.48220874690645       129.92326388598653       5.0                      # Si
212  212  2    148.3740806316061        129.92326388598653       5.0                      # Si
213  213  2    158.26538142503594       129.92326388598653       5.0                      # Si
214  214  2    9.89187188469966         129.92326388598653       5.0                      # Si
215  215  2    19.783172678129493       129.92326388598653       5.0                      # Si
216  216  2    29.67504456282915        129.92326388598653       5.0                      # Si
217  217  2    39.566345356258985       129.92326388598653       5.0                      # Si
218  218  2    49.45821724095864        129.92326388598653       5.0                      # Si
219  219  2    59.34951803438848        129.92326388598653       5.0                      # Si
220  220  2    69.24138991908814        129.92326388598653       5.0                      # Si
221  221  2    89.02456259721762        135.63417658427164       5.0                      # Si
222  222  2    98.91586339064746        135.63417658427164       5.0                      # Si
223  223  2    108.80773527534713       135.63417658427164       5.0                      # Si
224  224  2    118.69903606877696       135.63417658427164       5.0                      # Si
225  225  2    128.5909079534766        135.63417658427164       5.0                      # Si
226  226  2    138.48220874690645       135.63417658427164       5.0                      # Si
227  227  2    148.3740806316061        135.63417658427164       5.0                      # Si
228  228  2    158.26538142503594       135.63417658427164       5.0                      # Si
229  229  2    9.89187188469966         135.63417658427164       5.0                      # Si
230  230  2    19.783172678129493       135.63417658427164       5.0                      # Si
231  231  2    29.67504456282915        135.63417658427164       5.0                      # Si
232  232  2    39.566345356258985       135.63417658427164       5.0                      # Si
233  233  2    49.45821724095864        135.63417658427164       5.0                      # Si
234  234  2    59.34951803438848        135.63417658427164       5.0                      # Si
235  235  2    69.24138991908814        135.63417658427164       5.0                      # Si
236  236  2    79.13269071251797        135.63417658427164       5.0                      # Si
237  237  2    84.07834110923288        1.4277281745712807       5.0                      # Si
238  238  2    93.97021299393255        1.4277281745712807       5.0                      # Si
239  239  2    103.86151378736236       1.4277281745712807       5.0                      # Si
240  240  2    113.75338567206205       1.4277281745712807       5.0                      # Si
241  241  2    123.64468646549186       1.4277281745712807       5.0                      # Si
242  242  2    133.53655835019154       1.4277281745712807       5.0                      # Si
243  243  2    143.42785914362136       1.4277281745712807       5.0                      # Si
244  244  2    153.31973102832103       1.4277281745712807       5.0                      # Si
245  245  2    4.945650396714916        1.4277281745712807       5.0                      # Si
246  246  2    14.837522281414575       1.4277281745712807       5.0                      # Si
247  247  2    24.72882307484441        1.4277281745712807       5.0                      # Si
248  248  2    34.62069495954407        1.4277281745712807       5.0                      # Si
249  249  2    44.5119957529739         1.4277281745712807       5.0                      # Si
250  250  2    54.403867637673564       1.4277281745712807       5.0                      # Si
251  251  2    64.29516843110339        1.4277281745712807       5.0                      # Si
252  252  2    74.18704031580305        1.4277281745712807       5.0                      # Si
253  253  2    84.07834110923288        7.138640872856403        5.0                      # Si
254  254  2    93.97021299393255        7.138640872856403        5.0                      # Si
255  255  2    103.86151378736236       7.138640872856403        5.0                      # Si
256  256  2    113.75338567206205       7.138640872856403        5.0                      # Si
257  257  2    123.64468646549186       7.138640872856403        5.0                      # Si
258  258  2    133.53655835019154       7.138640872856403        5.0                      # Si
259  259  2    143.42785914362136       7.138640872856403        5.0                      # Si
260  260  2    153.31973102832103       7.138640872856403        5.0                      # Si
261  261  2    4.945650396714916        7.138640872856403        5.0                      # Si
262  262  2    14.837522281414575       7.138640872856403        5.0                      # Si
263  263  2    24.72882307484441        7.138640872856403        5.0                      # Si
264  264  2    34.62069495954407        7.138640872856403        5.0                      # Si
265  265  2    44.5119957529739         7.138640872856403        5.0                      # Si
266  266  2    54.403867637673564       7.138640872856403        5.0                      # Si
267  267  2    64.29516843110339        7.138640872856403        5.0                      # Si
268  268  2    74.18704031580305        7.138640872856403        5.0                      # Si
269  269  2    79.13269071251797        9.994097221998963        5.0                      # Si
270  270  2    89.02456259721762        9.994097221998963        5.0                      # Si
271  271  2    98.91586339064746        9.994097221998963        5.0                      # Si
272  272  2    108.80773527534713       9.994097221998963        5.0                      # Si
273  273  2    118.69903606877696       9.994097221998963        5.0                      # Si
274  274  2    128.5909079534766        9.994097221998963        5.0                      # Si
275  275  2    138.48220874690645       9.994097221998963        5.0                      # Si
276  276  2    148.3740806316061        9.994097221998963        5.0                      # Si
277  277  2    158.26538142503594       9.994097221998963        5.0                      # Si
278  278  2    9.89187188469966         9.994097221998963        5.0                      # Si
279  279  2    19.783172678129493       9.994097221998963        5.0                      # Si
280  280  2    29.67504456282915        9.994097221998963        5.0                      # Si
281  281  2    39.566345356258985       9.994097221998963        5.0                      # Si
282  282  2    49.45821724095864        9.994097221998963        5.0                      # Si
283  283  2    59.34951803438848        9.994097221998963        5.0                      # Si
284  284  2    69.24138991908814        9.994097221998963        5.0                      # Si
285  285  2    89.02456259721762        15.705009920284086       5.0                      # Si
286  286  2    98.91586339064746        15.705009920284086       5.0                      # Si
287  287  2    108.80773527534713       15.705009920284086       5.0                      # Si
288  288  2    118.69903606877696       15.705009920284086       5.0                      # Si
289  289  2    128.5909079534766        15.705009920284086       5.0                      # Si
290  290  2    138.48220874690645       15.705009920284086       5.0                      # Si
291  291  2    148.3740806316061        15.705009920284086       5.0                      # Si
292  292  2    158.26538142503594       15.705009920284086       5.0                      # Si
293  293  2    9.89187188469966         15.705009920284086       5.0                      # Si
294  294  2    19.783172678129493       15.705009920284086       5.0                      # Si
295  295  2    29.67504456282915        15.705009920284086       5.0                      # Si
296  296  2    39.566345356258985       15.705009920284086       5.0                      # Si
297  297  2    49.45821724095864        15.705009920284086       5.0                      # Si
298  298  2    59.34951803438848        15.705009920284086       5.0                      # Si
299  299  2    69.24138991908814        15.705009920284086       5.0                      # Si
300  300  2    79.13269071251797        15.705009920284086       5.0                      # Si
301  301  2    84.07834110923288        18.560466269426648       5.0                      # Si
302  302  2    93.97021299393255        18.560466269426648       5.0                      # Si
303  303  2    103.86151378736236       18.560466269426648       5.0                      # Si
304  304  2    113.75338567206205       18.560466269426648       5.0                      # Si
305  305  2    123.64468646549186       18.560466269426648       5.0                      # Si
306  306  2    133.53655835019154       18.560466269426648       5.0                      # Si
307  307  2    143.42785914362136       18.560466269426648       5.0                      # Si
308  308  2    153.31973102832103       18.560466269426648       5.0                      # Si
309  309  2    4.945650396714916        18.560466269426648       5.0                      # Si
310  310  2    14.837522281414575       18.560466269426648       5.0                      # Si
311  311  2    24.72882307484441        18.560466269426648       5.0                      # Si