DATA FILE Produced from netmc results (cf David Morley)
3000 atoms
10000 bonds
0 angles
0 dihedrals
0 impropers
2 atom types
0 bond types
2 bond types
0 angle types
0 dihedral types
0 improper types
0.00000 157.01432572139367 xlo xhi
0.00000 135.97839444568285 ylo yhi
0.0000 200.0000 zlo zhi

# Pair Coeffs
#
# 1  O
# 2  Si

# Bond Coeffs
# 
# 1  O-O
# 2  Si-O
# 3  O-O rep
# 4  Si-Si rep

 Masses

1 28.10000 # O 
2 32.01000 # Si

 Atoms # molecular

1    1    2    93.22735380860368        75.07140526688741        5.0                      # Si
2    2    2    93.22735380860368        75.07140526688741        11.081138669036534       # Si
3    3    2    103.04046127443381       75.07140526688741        5.0                      # Si
4    4    2    103.04046127443381       75.07140526688741        11.081138669036534       # Si
5    5    2    112.85413531690746       75.07140526688741        5.0                      # Si
6    6    2    112.85413531690746       75.07140526688741        11.081138669036534       # Si
7    7    2    122.66724278273757       75.07140526688741        5.0                      # Si
8    8    2    122.66724278273757       75.07140526688741        11.081138669036534       # Si
9    9    2    132.4809168252112        75.07140526688741        5.0                      # Si
10   10   2    132.4809168252112        75.07140526688741        11.081138669036534       # Si
11   11   2    142.29402429104132       75.07140526688741        5.0                      # Si
12   12   2    142.29402429104132       75.07140526688741        11.081138669036534       # Si
13   13   2    152.10769833351497       75.07140526688741        5.0                      # Si
14   14   2    152.10769833351497       75.07140526688741        11.081138669036534       # Si
15   15   2    4.906553732915056        75.07140526688741        5.0                      # Si
16   16   2    4.906553732915056        75.07140526688741        11.081138669036534       # Si
17   17   2    14.720227775388695       75.07140526688741        5.0                      # Si
18   18   2    14.720227775388695       75.07140526688741        11.081138669036534       # Si
19   19   2    24.533335241218804       75.07140526688741        5.0                      # Si
20   20   2    24.533335241218804       75.07140526688741        11.081138669036534       # Si
21   21   2    34.347009283692444       75.07140526688741        5.0                      # Si
22   22   2    34.347009283692444       75.07140526688741        11.081138669036534       # Si
23   23   2    44.16011674952256        75.07140526688741        5.0                      # Si
24   24   2    44.16011674952256        75.07140526688741        11.081138669036534       # Si
25   25   2    53.973790791996194       75.07140526688741        5.0                      # Si
26   26   2    53.973790791996194       75.07140526688741        11.081138669036534       # Si
27   27   2    63.78689825782631        75.07140526688741        5.0                      # Si
28   28   2    63.78689825782631        75.07140526688741        11.081138669036534       # Si
29   29   2    98.13390754151875        77.90428848450581        5.0                      # Si
30   30   2    98.13390754151875        77.90428848450581        11.081138669036534       # Si
31   31   2    107.94758158399239       77.90428848450581        5.0                      # Si
32   32   2    107.94758158399239       77.90428848450581        11.081138669036534       # Si
33   33   2    117.76068904982252       77.90428848450581        5.0                      # Si
34   34   2    117.76068904982252       77.90428848450581        11.081138669036534       # Si
35   35   2    127.57436309229614       77.90428848450581        5.0                      # Si
36   36   2    127.57436309229614       77.90428848450581        11.081138669036534       # Si
37   37   2    137.38747055812627       77.90428848450581        5.0                      # Si
38   38   2    137.38747055812627       77.90428848450581        11.081138669036534       # Si
39   39   2    147.2011446005999        77.90428848450581        5.0                      # Si
40   40   2    147.2011446005999        77.90428848450581        11.081138669036534       # Si
41   41   2    157.01425206643003       77.90428848450581        5.0                      # Si
42   42   2    157.01425206643003       77.90428848450581        11.081138669036534       # Si
43   43   2    9.813674042473638        77.90428848450581        5.0                      # Si
44   44   2    9.813674042473638        77.90428848450581        11.081138669036534       # Si
45   45   2    19.626781508303754       77.90428848450581        5.0                      # Si
46   46   2    19.626781508303754       77.90428848450581        11.081138669036534       # Si
47   47   2    29.44045555077739        77.90428848450581        5.0                      # Si
48   48   2    29.44045555077739        77.90428848450581        11.081138669036534       # Si
49   49   2    39.25356301660751        77.90428848450581        5.0                      # Si
50   50   2    39.25356301660751        77.90428848450581        11.081138669036534       # Si
51   51   2    49.06723705908114        77.90428848450581        5.0                      # Si
52   52   2    49.06723705908114        77.90428848450581        11.081138669036534       # Si
53   53   2    58.88034452491126        77.90428848450581        5.0                      # Si
54   54   2    58.88034452491126        77.90428848450581        11.081138669036534       # Si
55   55   2    88.32080007568864        83.5700549197426         5.0                      # Si
56   56   2    88.32080007568864        83.5700549197426         11.081138669036534       # Si
57   57   2    98.13390754151875        83.5700549197426         5.0                      # Si
58   58   2    98.13390754151875        83.5700549197426         11.081138669036534       # Si
59   59   2    107.94758158399239       83.5700549197426         5.0                      # Si
60   60   2    107.94758158399239       83.5700549197426         11.081138669036534       # Si
61   61   2    117.76068904982252       83.5700549197426         5.0                      # Si
62   62   2    117.76068904982252       83.5700549197426         11.081138669036534       # Si
63   63   2    127.57436309229614       83.5700549197426         5.0                      # Si
64   64   2    127.57436309229614       83.5700549197426         11.081138669036534       # Si
65   65   2    137.38747055812627       83.5700549197426         5.0                      # Si
66   66   2    137.38747055812627       83.5700549197426         11.081138669036534       # Si
67   67   2    147.2011446005999        83.5700549197426         5.0                      # Si
68   68   2    147.2011446005999        83.5700549197426         11.081138669036534       # Si
69   69   2    157.01425206643003       83.5700549197426         5.0                      # Si
70   70   2    157.01425206643003       83.5700549197426         11.081138669036534       # Si
71   71   2    9.813674042473638        83.5700549197426         5.0                      # Si
72   72   2    9.813674042473638        83.5700549197426         11.081138669036534       # Si
73   73   2    19.626781508303754       83.5700549197426         5.0                      # Si
74   74   2    19.626781508303754       83.5700549197426         11.081138669036534       # Si
75   75   2    29.44045555077739        83.5700549197426         5.0                      # Si
76   76   2    29.44045555077739        83.5700549197426         11.081138669036534       # Si
77   77   2    39.25356301660751        83.5700549197426         5.0                      # Si
78   78   2    39.25356301660751        83.5700549197426         11.081138669036534       # Si
79   79   2    49.06723705908114        83.5700549197426         5.0                      # Si
80   80   2    49.06723705908114        83.5700549197426         11.081138669036534       # Si
81   81   2    58.88034452491126        83.5700549197426         5.0                      # Si
82   82   2    58.88034452491126        83.5700549197426         11.081138669036534       # Si
83   83   2    68.69401856738489        83.5700549197426         5.0                      # Si
84   84   2    68.69401856738489        83.5700549197426         11.081138669036534       # Si
85   85   2    83.41367976613006        86.40293813736099        5.0                      # Si
86   86   2    83.41367976613006        86.40293813736099        11.081138669036534       # Si
87   87   2    93.22735380860368        86.40293813736099        5.0                      # Si
88   88   2    93.22735380860368        86.40293813736099        11.081138669036534       # Si
89   89   2    103.04046127443381       86.40293813736099        5.0                      # Si
90   90   2    103.04046127443381       86.40293813736099        11.081138669036534       # Si
91   91   2    112.85413531690746       86.40293813736099        5.0                      # Si
92   92   2    112.85413531690746       86.40293813736099        11.081138669036534       # Si
93   93   2    122.66724278273757       86.40293813736099        5.0                      # Si
94   94   2    122.66724278273757       86.40293813736099        11.081138669036534       # Si
95   95   2    132.4809168252112        86.40293813736099        5.0                      # Si
96   96   2    132.4809168252112        86.40293813736099        11.081138669036534       # Si
97   97   2    142.29402429104132       86.40293813736099        5.0                      # Si
98   98   2    142.29402429104132       86.40293813736099        11.081138669036534       # Si
99   99   2    152.10769833351497       86.40293813736099        5.0                      # Si
100  100  2    152.10769833351497       86.40293813736099        11.081138669036534       # Si
101  101  2    4.906553732915056        86.40293813736099        5.0                      # Si
102  102  2    4.906553732915056        86.40293813736099        11.081138669036534       # Si
103  103  2    14.720227775388695       86.40293813736099        5.0                      # Si
104  104  2    14.720227775388695       86.40293813736099        11.081138669036534       # Si
105  105  2    24.533335241218804       86.40293813736099        5.0                      # Si
106  106  2    24.533335241218804       86.40293813736099        11.081138669036534       # Si
107  107  2    34.347009283692444       86.40293813736099        5.0                      # Si
108  108  2    34.347009283692444       86.40293813736099        11.081138669036534       # Si
109  109  2    44.16011674952256        86.40293813736099        5.0                      # Si
110  110  2    44.16011674952256        86.40293813736099        11.081138669036534       # Si
111  111  2    53.973790791996194       86.40293813736099        5.0                      # Si
112  112  2    53.973790791996194       86.40293813736099        11.081138669036534       # Si
113  113  2    63.78689825782631        86.40293813736099        5.0                      # Si
114  114  2    63.78689825782631        86.40293813736099        11.081138669036534       # Si
115  115  2    73.60057230029994        86.40293813736099        5.0                      # Si
116  116  2    73.60057230029994        86.40293813736099        11.081138669036534       # Si
117  117  2    83.41367976613006        92.06870457259778        5.0                      # Si
118  118  2    83.41367976613006        92.06870457259778        11.081138669036534       # Si
119  119  2    93.22735380860368        92.06870457259778        5.0                      # Si
120  120  2    93.22735380860368        92.06870457259778        11.081138669036534       # Si
121  121  2    103.04046127443381       92.06870457259778        5.0                      # Si
122  122  2    103.04046127443381       92.06870457259778        11.081138669036534       # Si
123  123  2    112.85413531690746       92.06870457259778        5.0                      # Si
124  124  2    112.85413531690746       92.06870457259778        11.081138669036534       # Si
125  125  2    122.66724278273757       92.06870457259778        5.0                      # Si
126  126  2    122.66724278273757       92.06870457259778        11.081138669036534       # Si
127  127  2    132.4809168252112        92.06870457259778        5.0                      # Si
128  128  2    132.4809168252112        92.06870457259778        11.081138669036534       # Si
129  129  2    142.29402429104132       92.06870457259778        5.0                      # Si
130  130  2    142.29402429104132       92.06870457259778        11.081138669036534       # Si
131  131  2    152.10769833351497       92.06870457259778        5.0                      # Si
132  132  2    152.10769833351497       92.06870457259778        11.081138669036534       # Si
133  133  2    4.906553732915056        92.06870457259778        5.0                      # Si
134  134  2    4.906553732915056        92.06870457259778        11.081138669036534       # Si
135  135  2    14.720227775388695       92.06870457259778        5.0                      # Si
136  136  2    14.720227775388695       92.06870457259778        11.081138669036534       # Si
137  137  2    24.533335241218804       92.06870457259778        5.0                      # Si
138  138  2    24.533335241218804       92.06870457259778        11.081138669036534       # Si
139  139  2    34.347009283692444       92.06870457259778        5.0                      # Si
140  140  2    34.347009283692444       92.06870457259778        11.081138669036534       # Si
141  141  2    44.16011674952256        92.06870457259778        5.0                      # Si
142  142  2    44.16011674952256        92.06870457259778        11.081138669036534       # Si
143  143  2    53.973790791996194       92.06870457259778        5.0                      # Si
144  144  2    53.973790791996194       92.06870457259778        11.081138669036534       # Si
145  145  2    63.78689825782631        92.06870457259778        5.0                      # Si
146  146  2    63.78689825782631        92.06870457259778        11.081138669036534       # Si
147  147  2    73.60057230029994        92.06870457259778        5.0                      # Si
148  148  2    73.60057230029994        92.06870457259778        11.081138669036534       # Si
149  149  2    78.50712603321502        94.90158779021615        5.0                      # Si
150  150  2    78.50712603321502        94.90158779021615        11.081138669036534       # Si
151  151  2    88.32080007568864        94.90158779021615        5.0                      # Si
152  152  2    88.32080007568864        94.90158779021615        11.081138669036534       # Si
153  153  2    98.13390754151875        94.90158779021615        5.0                      # Si
154  154  2    98.13390754151875        94.90158779021615        11.081138669036534       # Si
155  155  2    107.94758158399239       94.90158779021615        5.0                      # Si
156  156  2    107.94758158399239       94.90158779021615        11.081138669036534       # Si
157  157  2    117.76068904982252       94.90158779021615        5.0                      # Si
158  158  2    117.76068904982252       94.90158779021615        11.081138669036534       # Si
159  159  2    127.57436309229614       94.90158779021615        5.0                      # Si
160  160  2    127.57436309229614       94.90158779021615        11.081138669036534       # Si
161  161  2    137.38747055812627       94.90158779021615        5.0                      # Si
162  162  2    137.38747055812627       94.90158779021615        11.081138669036534       # Si
163  163  2    147.2011446005999        94.90158779021615        5.0                      # Si
164  164  2    147.2011446005999        94.90158779021615        11.081138669036534       # Si
165  165  2    157.01425206643003       94.90158779021615        5.0                      # Si
166  166  2    157.01425206643003       94.90158779021615        11.081138669036534       # Si
167  167  2    9.813674042473638        94.90158779021615        5.0                      # Si
168  168  2    9.813674042473638        94.90158779021615        11.081138669036534       # Si
169  169  2    19.626781508303754       94.90158779021615        5.0                      # Si
170  170  2    19.626781508303754       94.90158779021615        11.081138669036534       # Si
171  171  2    29.44045555077739        94.90158779021615        5.0                      # Si
172  172  2    29.44045555077739        94.90158779021615        11.081138669036534       # Si
173  173  2    39.25356301660751        94.90158779021615        5.0                      # Si
174  174  2    39.25356301660751        94.90158779021615        11.081138669036534       # Si
175  175  2    49.06723705908114        94.90158779021615        5.0                      # Si
176  176  2    49.06723705908114        94.90158779021615        11.081138669036534       # Si
177  177  2    58.88034452491126        94.90158779021615        5.0                      # Si
178  178  2    58.88034452491126        94.90158779021615        11.081138669036534       # Si
179  179  2    68.69401856738489        94.90158779021615        5.0                      # Si
180  180  2    68.69401856738489        94.90158779021615        11.081138669036534       # Si
181  181  2    88.32080007568864        100.56735422545296       5.0                      # Si
182  182  2    88.32080007568864        100.56735422545296       11.081138669036534       # Si
183  183  2    98.13390754151875        100.56735422545296       5.0                      # Si
184  184  2    98.13390754151875        100.56735422545296       11.081138669036534       # Si
185  185  2    107.94758158399239       100.56735422545296       5.0                      # Si
186  186  2    107.94758158399239       100.56735422545296       11.081138669036534       # Si
187  187  2    117.76068904982252       100.56735422545296       5.0                      # Si
188  188  2    117.76068904982252       100.56735422545296       11.081138669036534       # Si
189  189  2    127.57436309229614       100.56735422545296       5.0                      # Si
190  190  2    127.57436309229614       100.56735422545296       11.081138669036534       # Si
191  191  2    137.38747055812627       100.56735422545296       5.0                      # Si
192  192  2    137.38747055812627       100.56735422545296       11.081138669036534       # Si
193  193  2    147.2011446005999        100.56735422545296       5.0                      # Si
194  194  2    147.2011446005999        100.56735422545296       11.081138669036534       # Si
195  195  2    157.01425206643003       100.56735422545296       5.0                      # Si
196  196  2    157.01425206643003       100.56735422545296       11.081138669036534       # Si
197  197  2    9.813674042473638        100.56735422545296       5.0                      # Si
198  198  2    9.813674042473638        100.56735422545296       11.081138669036534       # Si
199  199  2    19.626781508303754       100.56735422545296       5.0                      # Si
200  200  2    19.626781508303754       100.56735422545296       11.081138669036534       # Si
201  201  2    29.44045555077739        100.56735422545296       5.0                      # Si
202  202  2    29.44045555077739        100.56735422545296       11.081138669036534       # Si
203  203  2    39.25356301660751        100.56735422545296       5.0                      # Si
204  204  2    39.25356301660751        100.56735422545296       11.081138669036534       # Si
205  205  2    49.06723705908114        100.56735422545296       5.0                      # Si
206  206  2    49.06723705908114        100.56735422545296       11.081138669036534       # Si
207  207  2    58.88034452491126        100.56735422545296       5.0                      # Si
208  208  2    58.88034452491126        100.56735422545296       11.081138669036534       # Si
209  209  2    68.69401856738489        100.56735422545296       5.0                      # Si
210  210  2    68.69401856738489        100.56735422545296       11.081138669036534       # Si
211  211  2    78.50712603321502        100.56735422545296       5.0                      # Si
212  212  2    78.50712603321502        100.56735422545296       11.081138669036534       # Si
213  213  2    83.41367976613006        103.40023744307135       5.0                      # Si
214  214  2    83.41367976613006        103.40023744307135       11.081138669036534       # Si
215  215  2    93.22735380860368        103.40023744307135       5.0                      # Si
216  216  2    93.22735380860368        103.40023744307135       11.081138669036534       # Si
217  217  2    103.04046127443381       103.40023744307135       5.0                      # Si
218  218  2    103.04046127443381       103.40023744307135       11.081138669036534       # Si
219  219  2    112.85413531690746       103.40023744307135       5.0                      # Si
220  220  2    112.85413531690746       103.40023744307135       11.081138669036534       # Si
221  221  2    122.66724278273757       103.40023744307135       5.0                      # Si
222  222  2    122.66724278273757       103.40023744307135       11.081138669036534       # Si
223  223  2    132.4809168252112        103.40023744307135       5.0                      # Si
224  224  2    132.4809168252112        103.40023744307135       11.081138669036534       # Si
225  225  2    142.29402429104132       103.40023744307135       5.0                      # Si
226  226  2    142.29402429104132       103.40023744307135       11.081138669036534       # Si
227  227  2    152.10769833351497       103.40023744307135       5.0                      # Si
228  228  2    152.10769833351497       103.40023744307135       11.081138669036534       # Si
229  229  2    4.906553732915056        103.40023744307135       5.0                      # Si
230  230  2    4.906553732915056        103.40023744307135       11.081138669036534       # Si
231  231  2    14.720227775388695       103.40023744307135       5.0                      # Si
232  232  2    14.720227775388695       103.40023744307135       11.081138669036534       # Si
233  233  2    24.533335241218804       103.40023744307135       5.0                      # Si
234  234  2    24.533335241218804       103.40023744307135       11.081138669036534       # Si
235  235  2    34.347009283692444       103.40023744307135       5.0                      # Si
236  236  2    34.347009283692444       103.40023744307135       11.081138669036534       # Si
237  237  2    44.16011674952256        103.40023744307135       5.0                      # Si
238  238  2    44.16011674952256        103.40023744307135       11.081138669036534       # Si
239  239  2    53.973790791996194       103.40023744307135       5.0                      # Si
240  240  2    53.973790791996194       103.40023744307135       11.081138669036534       # Si
241  241  2    63.78689825782631        103.40023744307135       5.0                      # Si
242  242  2    63.78689825782631        103.40023744307135       11.081138669036534       # Si
243  243  2    73.60057230029994        103.40023744307135       5.0                      # Si
244  244  2    73.60057230029994        103.40023744307135       11.081138669036534       # Si
245  245  2    83.41367976613006        109.06600387830812       5.0                      # Si
246  246  2    83.41367976613006        109.06600387830812       11.081138669036534       # Si
247  247  2    93.22735380860368        109.06600387830812       5.0                      # Si
248  248  2    93.22735380860368        109.06600387830812       11.081138669036534       # Si
249  249  2    103.04046127443381       109.06600387830812       5.0                      # Si
250  250  2    103.04046127443381       109.06600387830812       11.081138669036534       # Si
251  251  2    112.85413531690746       109.06600387830812       5.0                      # Si
252  252  2    112.85413531690746       109.06600387830812       11.081138669036534       # Si
253  253  2    122.66724278273757       109.06600387830812       5.0                      # Si
254  254  2    122.66724278273757       109.06600387830812       11.081138669036534       # Si
255  255  2    132.4809168252112        109.06600387830812       5.0                      # Si
256  256  2    132.4809168252112        109.06600387830812       11.081138669036534       # Si
257  257  2    142.29402429104132       109.06600387830812       5.0                      # Si
258  258  2    142.29402429104132       109.06600387830812       11.081138669036534       # Si
259  259  2    152.10769833351497       109.06600387830812       5.0                      # Si
260  260  2    152.10769833351497       109.06600387830812       11.081138669036534       # Si
261  261  2    4.906553732915056        109.06600387830812       5.0                      # Si
262  262  2    4.906553732915056        109.06600387830812       11.081138669036534       # Si
263  263  2    14.720227775388695       109.06600387830812       5.0                      # Si
264  264  2    14.720227775388695       109.06600387830812       11.081138669036534       # Si
265  265  2    24.533335241218804       109.06600387830812       5.0                      # Si
266  266  2    24.533335241218804       109.06600387830812       11.081138669036534       # Si
267  267  2    34.347009283692444       109.06600387830812       5.0                      # Si
268  268  2    34.347009283692444       109.06600387830812       11.081138669036534       # Si
269  269  2    44.16011674952256        109.06600387830812       5.0                      # Si
270  270  2    44.16011674952256        109.06600387830812       11.081138669036534       # Si
271  271  2    53.973790791996194       109.06600387830812       5.0                      # Si
272  272  2    53.973790791996194       109.06600387830812       11.081138669036534       # Si
273  273  2    63.78689825782631        109.06600387830812       5.0                      # Si
274  274  2    63.78689825782631        109.06600387830812       11.081138669036534       # Si
275  275  2    73.60057230029994        109.06600387830812       5.0                      # Si
276  276  2    73.60057230029994        109.06600387830812       11.081138669036534       # Si
277  277  2    78.50712603321502        111.89888709592653       5.0                      # Si
278  278  2    78.50712603321502        111.89888709592653       11.081138669036534       # Si
279  279  2    88.32080007568864        111.89888709592653       5.0                      # Si
280  280  2    88.32080007568864        111.89888709592653       11.081138669036534       # Si
281  281  2    98.13390754151875        111.89888709592653       5.0                      # Si
282  282  2    98.13390754151875        111.89888709592653       11.081138669036534       # Si
283  283  2    107.94758158399239       111.89888709592653       5.0                      # Si
284  284  2    107.94758158399239       111.89888709592653       11.081138669036534       # Si
285  285  2    117.76068904982252       111.89888709592653       5.0                      # Si
286  286  2    117.76068904982252       111.89888709592653       11.081138669036534       # Si
287  287  2    127.57436309229614       111.89888709592653       5.0                      # Si
288  288  2    127.57436309229614       111.89888709592653       11.081138669036534       # Si
289  289  2    137.38747055812627       111.89888709592653       5.0                      # Si
290  290  2    137.38747055812627       111.89888709592653       11.081138669036534       # Si
291  291  2    147.2011446005999        111.89888709592653       5.0                      # Si
292  292  2    147.2011446005999        111.89888709592653       11.081138669036534       # Si
293  293  2    157.01425206643003       111.89888709592653       5.0                      # Si
294  294  2    157.01425206643003       111.89888709592653       11.081138669036534       # Si
295  295  2    9.813674042473638        111.89888709592653       5.0                      # Si
296  296  2    9.813674042473638        111.89888709592653       11.081138669036534       # Si
297  297  2    19.626781508303754       111.89888709592653       5.0                      # Si
298  298  2    19.626781508303754       111.89888709592653       11.081138669036534       # Si
299  299  2    29.44045555077739        111.89888709592653       5.0                      # Si
300  300  2    29.44045555077739        111.89888709592653       11.081138669036534       # Si
301  301  2    39.25356301660751        111.89888709592653       5.0                      # Si
302  302  2    39.25356301660751        111.89888709592653       11.081138669036534       # Si
303  303  2    49.06723705908114        111.89888709592653       5.0                      # Si
304  304  2    49.06723705908114        111.89888709592653       11.081138669036534       # Si
305  305  2    58.88034452491126        111.89888709592653       5.0                      # Si
306  306  2    58.88034452491126        111.89888709592653       11.081138669036534       # Si
307  307  2    68.69401856738489        111.89888709592653       5.0                      # Si
308  308  2    68.69401856738489        111.89888709592653       11.081138669036534       # Si
309  309  2    88.32080007568864        117.5646535311633        5.0                      # Si
310  310  2    88.32080007568864        117.5646535311633        11.081138669036534       # Si
311  311  2    98.13390754151875        117.5646535311633        5.0                      # Si