DATA FILE Produced from netmc results (cf David Morley)
7572 atoms
25240 bonds
0 angles
0 dihedrals
0 impropers
2 atom types
0 bond types
2 bond types
0 angle types
0 dihedral types
0 improper types
0.00000 249.45025520628474 xlo xhi
0.00000 216.03025797375915 ylo yhi
0.0000 200.0000 zlo zhi

# Pair Coeffs
#
# 1  O
# 2  Si

# Bond Coeffs
# 
# 1  O-O
# 2  Si-O
# 3  O-O rep
# 4  Si-Si rep

 Masses

1 28.10000 # O 
2 32.01000 # Si

 Atoms # molecular

1    1    2    158.3047573482171        114.93917571680772       5.0                      # Si
2    2    2    158.3047573482171        114.93917571680772       11.081138669036534       # Si
3    3    2    167.899270420944         114.93917571680772       5.0                      # Si
4    4    2    167.899270420944         114.93917571680772       11.081138669036534       # Si
5    5    2    177.49322956993248       114.93917571680772       5.0                      # Si
6    6    2    177.49322956993248       114.93917571680772       11.081138669036534       # Si
7    7    2    187.08774264265932       114.93917571680772       5.0                      # Si
8    8    2    187.08774264265932       114.93917571680772       11.081138669036534       # Si
9    9    2    196.68170179164778       114.93917571680772       5.0                      # Si
10   10   2    196.68170179164778       114.93917571680772       11.081138669036534       # Si
11   11   2    206.2762148643747        114.93917571680772       5.0                      # Si
12   12   2    206.2762148643747        114.93917571680772       11.081138669036534       # Si
13   13   2    215.87017401336317       114.93917571680772       5.0                      # Si
14   14   2    215.87017401336317       114.93917571680772       11.081138669036534       # Si
15   15   2    225.46468708609007       114.93917571680772       5.0                      # Si
16   16   2    225.46468708609007       114.93917571680772       11.081138669036534       # Si
17   17   2    235.05864623507856       114.93917571680772       5.0                      # Si
18   18   2    235.05864623507856       114.93917571680772       11.081138669036534       # Si
19   19   2    244.6531593078054        114.93917571680772       5.0                      # Si
20   20   2    244.6531593078054        114.93917571680772       11.081138669036534       # Si
21   21   2    4.796979574494241        114.93917571680772       5.0                      # Si
22   22   2    4.796979574494241        114.93917571680772       11.081138669036534       # Si
23   23   2    14.391492647221117       114.93917571680772       5.0                      # Si
24   24   2    14.391492647221117       114.93917571680772       11.081138669036534       # Si
25   25   2    23.9854517962096         114.93917571680772       5.0                      # Si
26   26   2    23.9854517962096         114.93917571680772       11.081138669036534       # Si
27   27   2    33.57996486893647        114.93917571680772       5.0                      # Si
28   28   2    33.57996486893647        114.93917571680772       11.081138669036534       # Si
29   29   2    43.17392401792495        114.93917571680772       5.0                      # Si
30   30   2    43.17392401792495        114.93917571680772       11.081138669036534       # Si
31   31   2    52.76843709065184        114.93917571680772       5.0                      # Si
32   32   2    52.76843709065184        114.93917571680772       11.081138669036534       # Si
33   33   2    62.36239623964032        114.93917571680772       5.0                      # Si
34   34   2    62.36239623964032        114.93917571680772       11.081138669036534       # Si
35   35   2    71.95690931236719        114.93917571680772       5.0                      # Si
36   36   2    71.95690931236719        114.93917571680772       11.081138669036534       # Si
37   37   2    81.55086846135568        114.93917571680772       5.0                      # Si
38   38   2    81.55086846135568        114.93917571680772       11.081138669036534       # Si
39   39   2    91.14538153408255        114.93917571680772       5.0                      # Si
40   40   2    91.14538153408255        114.93917571680772       11.081138669036534       # Si
41   41   2    153.50777777372286       117.708794408779         5.0                      # Si
42   42   2    153.50777777372286       117.708794408779         11.081138669036534       # Si
43   43   2    163.10229084644973       117.708794408779         5.0                      # Si
44   44   2    163.10229084644973       117.708794408779         11.081138669036534       # Si
45   45   2    172.69624999543822       117.708794408779         5.0                      # Si
46   46   2    172.69624999543822       117.708794408779         11.081138669036534       # Si
47   47   2    182.2907630681651        117.708794408779         5.0                      # Si
48   48   2    182.2907630681651        117.708794408779         11.081138669036534       # Si
49   49   2    191.88472221715355       117.708794408779         5.0                      # Si
50   50   2    191.88472221715355       117.708794408779         11.081138669036534       # Si
51   51   2    201.47923528988045       117.708794408779         5.0                      # Si
52   52   2    201.47923528988045       117.708794408779         11.081138669036534       # Si
53   53   2    211.07319443886894       117.708794408779         5.0                      # Si
54   54   2    211.07319443886894       117.708794408779         11.081138669036534       # Si
55   55   2    220.66770751159584       117.708794408779         5.0                      # Si
56   56   2    220.66770751159584       117.708794408779         11.081138669036534       # Si
57   57   2    230.26166666058432       117.708794408779         5.0                      # Si
58   58   2    230.26166666058432       117.708794408779         11.081138669036534       # Si
59   59   2    239.85617973331117       117.708794408779         5.0                      # Si
60   60   2    239.85617973331117       117.708794408779         11.081138669036534       # Si
61   61   2    249.45013888229965       117.708794408779         5.0                      # Si
62   62   2    249.45013888229965       117.708794408779         11.081138669036534       # Si
63   63   2    9.594513072726876        117.708794408779         5.0                      # Si
64   64   2    9.594513072726876        117.708794408779         11.081138669036534       # Si
65   65   2    19.188472221715358       117.708794408779         5.0                      # Si
66   66   2    19.188472221715358       117.708794408779         11.081138669036534       # Si
67   67   2    28.782985294442234       117.708794408779         5.0                      # Si
68   68   2    28.782985294442234       117.708794408779         11.081138669036534       # Si
69   69   2    38.376944443430716       117.708794408779         5.0                      # Si
70   70   2    38.376944443430716       117.708794408779         11.081138669036534       # Si
71   71   2    47.97145751615759        117.708794408779         5.0                      # Si
72   72   2    47.97145751615759        117.708794408779         11.081138669036534       # Si
73   73   2    57.56541666514608        117.708794408779         5.0                      # Si
74   74   2    57.56541666514608        117.708794408779         11.081138669036534       # Si
75   75   2    67.15992973787294        117.708794408779         5.0                      # Si
76   76   2    67.15992973787294        117.708794408779         11.081138669036534       # Si
77   77   2    76.75388888686143        117.708794408779         5.0                      # Si
78   78   2    76.75388888686143        117.708794408779         11.081138669036534       # Si
79   79   2    86.3484019595883         117.708794408779         5.0                      # Si
80   80   2    86.3484019595883         117.708794408779         11.081138669036534       # Si
81   81   2    95.94236110857678        117.708794408779         5.0                      # Si
82   82   2    95.94236110857678        117.708794408779         11.081138669036534       # Si
83   83   2    153.50777777372286       123.24803179272155       5.0                      # Si
84   84   2    153.50777777372286       123.24803179272155       11.081138669036534       # Si
85   85   2    163.10229084644973       123.24803179272155       5.0                      # Si
86   86   2    163.10229084644973       123.24803179272155       11.081138669036534       # Si
87   87   2    172.69624999543822       123.24803179272155       5.0                      # Si
88   88   2    172.69624999543822       123.24803179272155       11.081138669036534       # Si
89   89   2    182.2907630681651        123.24803179272155       5.0                      # Si
90   90   2    182.2907630681651        123.24803179272155       11.081138669036534       # Si
91   91   2    191.88472221715355       123.24803179272155       5.0                      # Si
92   92   2    191.88472221715355       123.24803179272155       11.081138669036534       # Si
93   93   2    201.47923528988045       123.24803179272155       5.0                      # Si
94   94   2    201.47923528988045       123.24803179272155       11.081138669036534       # Si
95   95   2    211.07319443886894       123.24803179272155       5.0                      # Si
96   96   2    211.07319443886894       123.24803179272155       11.081138669036534       # Si
97   97   2    220.66770751159584       123.24803179272155       5.0                      # Si
98   98   2    220.66770751159584       123.24803179272155       11.081138669036534       # Si
99   99   2    230.26166666058432       123.24803179272155       5.0                      # Si
100  100  2    230.26166666058432       123.24803179272155       11.081138669036534       # Si
101  101  2    239.85617973331117       123.24803179272155       5.0                      # Si
102  102  2    239.85617973331117       123.24803179272155       11.081138669036534       # Si
103  103  2    249.45013888229965       123.24803179272155       5.0                      # Si
104  104  2    249.45013888229965       123.24803179272155       11.081138669036534       # Si
105  105  2    9.594513072726876        123.24803179272155       5.0                      # Si
106  106  2    9.594513072726876        123.24803179272155       11.081138669036534       # Si
107  107  2    19.188472221715358       123.24803179272155       5.0                      # Si
108  108  2    19.188472221715358       123.24803179272155       11.081138669036534       # Si
109  109  2    28.782985294442234       123.24803179272155       5.0                      # Si
110  110  2    28.782985294442234       123.24803179272155       11.081138669036534       # Si
111  111  2    38.376944443430716       123.24803179272155       5.0                      # Si
112  112  2    38.376944443430716       123.24803179272155       11.081138669036534       # Si
113  113  2    47.97145751615759        123.24803179272155       5.0                      # Si
114  114  2    47.97145751615759        123.24803179272155       11.081138669036534       # Si
115  115  2    57.56541666514608        123.24803179272155       5.0                      # Si
116  116  2    57.56541666514608        123.24803179272155       11.081138669036534       # Si
117  117  2    67.15992973787294        123.24803179272155       5.0                      # Si
118  118  2    67.15992973787294        123.24803179272155       11.081138669036534       # Si
119  119  2    76.75388888686143        123.24803179272155       5.0                      # Si
120  120  2    76.75388888686143        123.24803179272155       11.081138669036534       # Si
121  121  2    86.3484019595883         123.24803179272155       5.0                      # Si
122  122  2    86.3484019595883         123.24803179272155       11.081138669036534       # Si
123  123  2    95.94236110857678        123.24803179272155       5.0                      # Si
124  124  2    95.94236110857678        123.24803179272155       11.081138669036534       # Si
125  125  2    158.3047573482171        126.01765048469282       5.0                      # Si
126  126  2    158.3047573482171        126.01765048469282       11.081138669036534       # Si
127  127  2    167.899270420944         126.01765048469282       5.0                      # Si
128  128  2    167.899270420944         126.01765048469282       11.081138669036534       # Si
129  129  2    177.49322956993248       126.01765048469282       5.0                      # Si
130  130  2    177.49322956993248       126.01765048469282       11.081138669036534       # Si
131  131  2    187.08774264265932       126.01765048469282       5.0                      # Si
132  132  2    187.08774264265932       126.01765048469282       11.081138669036534       # Si
133  133  2    196.68170179164778       126.01765048469282       5.0                      # Si
134  134  2    196.68170179164778       126.01765048469282       11.081138669036534       # Si
135  135  2    206.2762148643747        126.01765048469282       5.0                      # Si
136  136  2    206.2762148643747        126.01765048469282       11.081138669036534       # Si
137  137  2    215.87017401336317       126.01765048469282       5.0                      # Si
138  138  2    215.87017401336317       126.01765048469282       11.081138669036534       # Si
139  139  2    225.46468708609007       126.01765048469282       5.0                      # Si
140  140  2    225.46468708609007       126.01765048469282       11.081138669036534       # Si
141  141  2    235.05864623507856       126.01765048469282       5.0                      # Si
142  142  2    235.05864623507856       126.01765048469282       11.081138669036534       # Si
143  143  2    244.6531593078054        126.01765048469282       5.0                      # Si
144  144  2    244.6531593078054        126.01765048469282       11.081138669036534       # Si
145  145  2    4.796979574494241        126.01765048469282       5.0                      # Si
146  146  2    4.796979574494241        126.01765048469282       11.081138669036534       # Si
147  147  2    14.391492647221117       126.01765048469282       5.0                      # Si
148  148  2    14.391492647221117       126.01765048469282       11.081138669036534       # Si
149  149  2    23.9854517962096         126.01765048469282       5.0                      # Si
150  150  2    23.9854517962096         126.01765048469282       11.081138669036534       # Si
151  151  2    33.57996486893647        126.01765048469282       5.0                      # Si
152  152  2    33.57996486893647        126.01765048469282       11.081138669036534       # Si
153  153  2    43.17392401792495        126.01765048469282       5.0                      # Si
154  154  2    43.17392401792495        126.01765048469282       11.081138669036534       # Si
155  155  2    52.76843709065184        126.01765048469282       5.0                      # Si
156  156  2    52.76843709065184        126.01765048469282       11.081138669036534       # Si
157  157  2    62.36239623964032        126.01765048469282       5.0                      # Si
158  158  2    62.36239623964032        126.01765048469282       11.081138669036534       # Si
159  159  2    71.95690931236719        126.01765048469282       5.0                      # Si
160  160  2    71.95690931236719        126.01765048469282       11.081138669036534       # Si
161  161  2    81.55086846135568        126.01765048469282       5.0                      # Si
162  162  2    81.55086846135568        126.01765048469282       11.081138669036534       # Si
163  163  2    91.14538153408255        126.01765048469282       5.0                      # Si
164  164  2    91.14538153408255        126.01765048469282       11.081138669036534       # Si
165  165  2    148.71079819922863       131.55688786863536       5.0                      # Si
166  166  2    148.71079819922863       131.55688786863536       11.081138669036534       # Si
167  167  2    158.3047573482171        131.55688786863536       5.0                      # Si
168  168  2    158.3047573482171        131.55688786863536       11.081138669036534       # Si
169  169  2    167.899270420944         131.55688786863536       5.0                      # Si
170  170  2    167.899270420944         131.55688786863536       11.081138669036534       # Si
171  171  2    177.49322956993248       131.55688786863536       5.0                      # Si
172  172  2    177.49322956993248       131.55688786863536       11.081138669036534       # Si
173  173  2    187.08774264265932       131.55688786863536       5.0                      # Si
174  174  2    187.08774264265932       131.55688786863536       11.081138669036534       # Si
175  175  2    196.68170179164778       131.55688786863536       5.0                      # Si
176  176  2    196.68170179164778       131.55688786863536       11.081138669036534       # Si
177  177  2    206.2762148643747        131.55688786863536       5.0                      # Si
178  178  2    206.2762148643747        131.55688786863536       11.081138669036534       # Si
179  179  2    215.87017401336317       131.55688786863536       5.0                      # Si
180  180  2    215.87017401336317       131.55688786863536       11.081138669036534       # Si
181  181  2    225.46468708609007       131.55688786863536       5.0                      # Si
182  182  2    225.46468708609007       131.55688786863536       11.081138669036534       # Si
183  183  2    235.05864623507856       131.55688786863536       5.0                      # Si
184  184  2    235.05864623507856       131.55688786863536       11.081138669036534       # Si
185  185  2    244.6531593078054        131.55688786863536       5.0                      # Si
186  186  2    244.6531593078054        131.55688786863536       11.081138669036534       # Si
187  187  2    4.796979574494241        131.55688786863536       5.0                      # Si
188  188  2    4.796979574494241        131.55688786863536       11.081138669036534       # Si
189  189  2    14.391492647221117       131.55688786863536       5.0                      # Si
190  190  2    14.391492647221117       131.55688786863536       11.081138669036534       # Si
191  191  2    23.9854517962096         131.55688786863536       5.0                      # Si
192  192  2    23.9854517962096         131.55688786863536       11.081138669036534       # Si
193  193  2    33.57996486893647        131.55688786863536       5.0                      # Si
194  194  2    33.57996486893647        131.55688786863536       11.081138669036534       # Si
195  195  2    43.17392401792495        131.55688786863536       5.0                      # Si
196  196  2    43.17392401792495        131.55688786863536       11.081138669036534       # Si
197  197  2    52.76843709065184        131.55688786863536       5.0                      # Si
198  198  2    52.76843709065184        131.55688786863536       11.081138669036534       # Si
199  199  2    62.36239623964032        131.55688786863536       5.0                      # Si
200  200  2    62.36239623964032        131.55688786863536       11.081138669036534       # Si
201  201  2    71.95690931236719        131.55688786863536       5.0                      # Si
202  202  2    71.95690931236719        131.55688786863536       11.081138669036534       # Si
203  203  2    81.55086846135568        131.55688786863536       5.0                      # Si
204  204  2    81.55086846135568        131.55688786863536       11.081138669036534       # Si
205  205  2    91.14538153408255        131.55688786863536       5.0                      # Si
206  206  2    91.14538153408255        131.55688786863536       11.081138669036534       # Si
207  207  2    100.73934068307102       131.55688786863536       5.0                      # Si
208  208  2    100.73934068307102       131.55688786863536       11.081138669036534       # Si
209  209  2    153.50777777372286       134.32650656060662       5.0                      # Si
210  210  2    153.50777777372286       134.32650656060662       11.081138669036534       # Si
211  211  2    163.10229084644973       134.32650656060662       5.0                      # Si
212  212  2    163.10229084644973       134.32650656060662       11.081138669036534       # Si
213  213  2    172.69624999543822       134.32650656060662       5.0                      # Si
214  214  2    172.69624999543822       134.32650656060662       11.081138669036534       # Si
215  215  2    182.2907630681651        134.32650656060662       5.0                      # Si
216  216  2    182.2907630681651        134.32650656060662       11.081138669036534       # Si
217  217  2    191.88472221715355       134.32650656060662       5.0                      # Si
218  218  2    191.88472221715355       134.32650656060662       11.081138669036534       # Si
219  219  2    201.47923528988045       134.32650656060662       5.0                      # Si
220  220  2    201.47923528988045       134.32650656060662       11.081138669036534       # Si
221  221  2    211.07319443886894       134.32650656060662       5.0                      # Si
222  222  2    211.07319443886894       134.32650656060662       11.081138669036534       # Si
223  223  2    220.66770751159584       134.32650656060662       5.0                      # Si
224  224  2    220.66770751159584       134.32650656060662       11.081138669036534       # Si
225  225  2    230.26166666058432       134.32650656060662       5.0                      # Si
226  226  2    230.26166666058432       134.32650656060662       11.081138669036534       # Si
227  227  2    239.85617973331117       134.32650656060662       5.0                      # Si
228  228  2    239.85617973331117       134.32650656060662       11.081138669036534       # Si
229  229  2    249.45013888229965       134.32650656060662       5.0                      # Si
230  230  2    249.45013888229965       134.32650656060662       11.081138669036534       # Si
231  231  2    9.594513072726876        134.32650656060662       5.0                      # Si
232  232  2    9.594513072726876        134.32650656060662       11.081138669036534       # Si
233  233  2    19.188472221715358       134.32650656060662       5.0                      # Si
234  234  2    19.188472221715358       134.32650656060662       11.081138669036534       # Si
235  235  2    28.782985294442234       134.32650656060662       5.0                      # Si
236  236  2    28.782985294442234       134.32650656060662       11.081138669036534       # Si
237  237  2    38.376944443430716       134.32650656060662       5.0                      # Si
238  238  2    38.376944443430716       134.32650656060662       11.081138669036534       # Si
239  239  2    47.97145751615759        134.32650656060662       5.0                      # Si
240  240  2    47.97145751615759        134.32650656060662       11.081138669036534       # Si
241  241  2    57.56541666514608        134.32650656060662       5.0                      # Si
242  242  2    57.56541666514608        134.32650656060662       11.081138669036534       # Si
243  243  2    67.15992973787294        134.32650656060662       5.0                      # Si
244  244  2    67.15992973787294        134.32650656060662       11.081138669036534       # Si
245  245  2    76.75388888686143        134.32650656060662       5.0                      # Si
246  246  2    76.75388888686143        134.32650656060662       11.081138669036534       # Si
247  247  2    86.3484019595883         134.32650656060662       5.0                      # Si
248  248  2    86.3484019595883         134.32650656060662       11.081138669036534       # Si
249  249  2    95.94236110857678        134.32650656060662       5.0                      # Si
250  250  2    95.94236110857678        134.32650656060662       11.081138669036534       # Si
251  251  2    143.91381862473438       139.86574394454917       5.0                      # Si
252  252  2    143.91381862473438       139.86574394454917       11.081138669036534       # Si
253  253  2    153.50777777372286       139.86574394454917       5.0                      # Si
254  254  2    153.50777777372286       139.86574394454917       11.081138669036534       # Si
255  255  2    163.10229084644973       139.86574394454917       5.0                      # Si
256  256  2    163.10229084644973       139.86574394454917       11.081138669036534       # Si
257  257  2    172.69624999543822       139.86574394454917       5.0                      # Si
258  258  2    172.69624999543822       139.86574394454917       11.081138669036534       # Si
259  259  2    182.2907630681651        139.86574394454917       5.0                      # Si
260  260  2    182.2907630681651        139.86574394454917       11.081138669036534       # Si
261  261  2    191.88472221715355       139.86574394454917       5.0                      # Si
262  262  2    191.88472221715355       139.86574394454917       11.081138669036534       # Si
263  263  2    201.47923528988045       139.86574394454917       5.0                      # Si
264  264  2    201.47923528988045       139.86574394454917       11.081138669036534       # Si
265  265  2    211.07319443886894       139.86574394454917       5.0                      # Si
266  266  2    211.07319443886894       139.86574394454917       11.081138669036534       # Si
267  267  2    220.66770751159584       139.86574394454917       5.0                      # Si
268  268  2    220.66770751159584       139.86574394454917       11.081138669036534       # Si
269  269  2    230.26166666058432       139.86574394454917       5.0                      # Si
270  270  2    230.26166666058432       139.86574394454917       11.081138669036534       # Si
271  271  2    239.85617973331117       139.86574394454917       5.0                      # Si
272  272  2    239.85617973331117       139.86574394454917       11.081138669036534       # Si
273  273  2    249.45013888229965       139.86574394454917       5.0                      # Si
274  274  2    249.45013888229965       139.86574394454917       11.081138669036534       # Si
275  275  2    9.594513072726876        139.86574394454917       5.0                      # Si
276  276  2    9.594513072726876        139.86574394454917       11.081138669036534       # Si
277  277  2    19.188472221715358       139.86574394454917       5.0                      # Si
278  278  2    19.188472221715358       139.86574394454917       11.081138669036534       # Si
279  279  2    28.782985294442234       139.86574394454917       5.0                      # Si
280  280  2    28.782985294442234       139.86574394454917       11.081138669036534       # Si
281  281  2    38.376944443430716       139.86574394454917       5.0                      # Si
282  282  2    38.376944443430716       139.86574394454917       11.081138669036534       # Si
283  283  2    47.97145751615759        139.86574394454917       5.0                      # Si
284  284  2    47.97145751615759        139.86574394454917       11.081138669036534       # Si
285  285  2    57.56541666514608        139.86574394454917       5.0                      # Si
286  286  2    57.56541666514608        139.86574394454917       11.081138669036534       # Si
287  287  2    67.15992973787294        139.86574394454917       5.0                      # Si
288  288  2    67.15992973787294        139.86574394454917       11.081138669036534       # Si
289  289  2    76.75388888686143        139.86574394454917       5.0                      # Si
290  290  2    76.75388888686143        139.86574394454917       11.081138669036534       # Si
291  291  2    86.3484019595883         139.86574394454917       5.0                      # Si
292  292  2    86.3484019595883         139.86574394454917       11.081138669036534       # Si
293  293  2    95.94236110857678        139.86574394454917       5.0                      # Si
294  294  2    95.94236110857678        139.86574394454917       11.081138669036534       # Si
295  295  2    105.53687418130367       139.86574394454917       5.0                      # Si
296  296  2    105.53687418130367       139.86574394454917       11.081138669036534       # Si
297  297  2    129.52232597751325       142.63536263652045       5.0                      # Si
298  298  2    129.52232597751325       142.63536263652045       11.081138669036534       # Si
299  299  2    139.11628512650174       142.63536263652045       5.0                      # Si
300  300  2    139.11628512650174       142.63536263652045       11.081138669036534       # Si
301  301  2    148.71079819922863       142.63536263652045       5.0                      # Si
302  302  2    148.71079819922863       142.63536263652045       11.081138669036534       # Si
303  303  2    158.3047573482171        142.63536263652045       5.0                      # Si
304  304  2    158.3047573482171        142.63536263652045       11.081138669036534       # Si
305  305  2    167.899270420944         142.63536263652045       5.0                      # Si
306  306  2    167.899270420944         142.63536263652045       11.081138669036534       # Si
307  307  2    177.49322956993248       142.63536263652045       5.0                      # Si
308  308  2    177.49322956993248       142.63536263652045       11.081138669036534       # Si
309  309  2    187.08774264265932       142.63536263652045       5.0                      # Si
310  310  2    187.08774264265932       142.63536263652045       11.081138669036534       # Si
311  311  2    196.68170179164778       142.63536263652045       5.0                      # Si