DATA FILE Produced from netmc results (cf David Morley)
1008 atoms
3360 bonds
0 angles
0 dihedrals
0 impropers
2 atom types
0 bond types
2 bond types
0 angle types
0 dihedral types
0 improper types
0.00000 136.4519545072348 xlo xhi
0.00000 119.7263007926716 ylo yhi
0.0000 200.0000 zlo zhi

# Pair Coeffs
#
# 1  O
# 2  Si

# Bond Coeffs
# 
# 1  O-O
# 2  Si-O
# 3  O-O rep
# 4  Si-Si rep

 Masses

1 28.10000 # O 
2 32.01000 # Si

 Atoms # molecular

1    1    1    108.02457617226965       68.17747681797495        8.040569334518267        # O
2    2    1    119.39523861408892       68.17747681797495        8.040569334518267        # O
3    3    1    130.76655763943882       68.17747681797495        8.040569334518267        # O
4    4    1    5.6853312209096325       68.17747681797495        8.040569334518267        # O
5    5    1    17.05665024625952        68.17747681797495        8.040569334518267        # O
6    6    1    28.42731274541231        68.17747681797495        8.040569334518267        # O
7    7    1    113.7099073931793        71.50320742103074        8.040569334518267        # O
8    8    1    125.08122636119566       71.50320742103074        8.040569334518267        # O
9    9    1    136.45188886034845       71.50320742103074        8.040569334518267        # O
10   10   1    11.371318968016363       71.50320742103074        8.040569334518267        # O
11   11   1    22.741981467169154       71.50320742103074        8.040569334518267        # O
12   12   1    102.33924489402649       78.15466856980876        8.040569334518267        # O
13   13   1    113.7099073931793        78.15466856980876        8.040569334518267        # O
14   14   1    125.08122636119566       78.15466856980876        8.040569334518267        # O
15   15   1    136.45188886034845       78.15466856980876        8.040569334518267        # O
16   16   1    11.371318968016363       78.15466856980876        8.040569334518267        # O
17   17   1    22.741981467169154       78.15466856980876        8.040569334518267        # O
18   18   1    34.11330049251904        78.15466856980876        8.040569334518267        # O
19   19   1    108.02457617226965       81.48039917286454        8.040569334518267        # O
20   20   1    119.39523861408892       81.48039917286454        8.040569334518267        # O
21   21   1    130.76655763943882       81.48039917286454        8.040569334518267        # O
22   22   1    5.6853312209096325       81.48039917286454        8.040569334518267        # O
23   23   1    17.05665024625952        81.48039917286454        8.040569334518267        # O
24   24   1    28.42731274541231        81.48039917286454        8.040569334518267        # O
25   25   1    96.65325714691978        88.13186032164256        8.040569334518267        # O
26   26   1    108.02457617226965       88.13186032164256        8.040569334518267        # O
27   27   1    119.39523861408892       88.13186032164256        8.040569334518267        # O
28   28   1    130.76655763943882       88.13186032164256        8.040569334518267        # O
29   29   1    5.6853312209096325       88.13186032164256        8.040569334518267        # O
30   30   1    17.05665024625952        88.13186032164256        8.040569334518267        # O
31   31   1    28.42731274541231        88.13186032164256        8.040569334518267        # O
32   32   1    39.79863171342867        88.13186032164256        8.040569334518267        # O
33   33   1    68.22594445884098        91.45759086736483        8.040569334518267        # O
34   34   1    79.59726342685734        91.45759086736483        8.040569334518267        # O
35   35   1    90.96792592601014        91.45759086736483        8.040569334518267        # O
36   36   1    102.33924489402649       91.45759086736483        8.040569334518267        # O
37   37   1    113.7099073931793        91.45759086736483        8.040569334518267        # O
38   38   1    125.08122636119566       91.45759086736483        8.040569334518267        # O
39   39   1    136.45188886034845       91.45759086736483        8.040569334518267        # O
40   40   1    11.371318968016363       91.45759086736483        8.040569334518267        # O
41   41   1    22.741981467169154       91.45759086736483        8.040569334518267        # O
42   42   1    34.11330049251904        91.45759086736483        8.040569334518267        # O
43   43   1    45.48396293433831        91.45759086736483        8.040569334518267        # O
44   44   1    56.85528195968819        91.45759086736483        8.040569334518267        # O
45   45   1    79.59726342685734        98.10905201614284        8.040569334518267        # O
46   46   1    90.96792592601014        98.10905201614284        8.040569334518267        # O
47   47   1    102.33924489402649       98.10905201614284        8.040569334518267        # O
48   48   1    113.7099073931793        98.10905201614284        8.040569334518267        # O
49   49   1    125.08122636119566       98.10905201614284        8.040569334518267        # O
50   50   1    136.45188886034845       98.10905201614284        8.040569334518267        # O
51   51   1    11.371318968016363       98.10905201614284        8.040569334518267        # O
52   52   1    22.741981467169154       98.10905201614284        8.040569334518267        # O
53   53   1    34.11330049251904        98.10905201614284        8.040569334518267        # O
54   54   1    45.48396293433831        98.10905201614284        8.040569334518267        # O
55   55   1    56.85528195968819        98.10905201614284        8.040569334518267        # O
56   56   1    68.22594445884098        98.10905201614284        8.040569334518267        # O
57   57   1    73.91127567975062        101.43478261919861       8.040569334518267        # O
58   58   1    85.28259464776698        101.43478261919861       8.040569334518267        # O
59   59   1    96.65325714691978        101.43478261919861       8.040569334518267        # O
60   60   1    108.02457617226965       101.43478261919861       8.040569334518267        # O
61   61   1    119.39523861408892       101.43478261919861       8.040569334518267        # O
62   62   1    130.76655763943882       101.43478261919861       8.040569334518267        # O
63   63   1    5.6853312209096325       101.43478261919861       8.040569334518267        # O
64   64   1    17.05665024625952        101.43478261919861       8.040569334518267        # O
65   65   1    28.42731274541231        101.43478261919861       8.040569334518267        # O
66   66   1    39.79863171342867        101.43478261919861       8.040569334518267        # O
67   67   1    51.16929421258146        101.43478261919861       8.040569334518267        # O
68   68   1    62.54061318059783        101.43478261919861       8.040569334518267        # O
69   69   1    73.91127567975062        108.08624376797667       8.040569334518267        # O
70   70   1    85.28259464776698        108.08624376797667       8.040569334518267        # O
71   71   1    96.65325714691978        108.08624376797667       8.040569334518267        # O
72   72   1    108.02457617226965       108.08624376797667       8.040569334518267        # O
73   73   1    119.39523861408892       108.08624376797667       8.040569334518267        # O
74   74   1    130.76655763943882       108.08624376797667       8.040569334518267        # O
75   75   1    5.6853312209096325       108.08624376797667       8.040569334518267        # O
76   76   1    17.05665024625952        108.08624376797667       8.040569334518267        # O
77   77   1    28.42731274541231        108.08624376797667       8.040569334518267        # O
78   78   1    39.79863171342867        108.08624376797667       8.040569334518267        # O
79   79   1    51.16929421258146        108.08624376797667       8.040569334518267        # O
80   80   1    62.54061318059783        108.08624376797667       8.040569334518267        # O
81   81   1    68.22594445884098        111.41197437103243       8.040569334518267        # O
82   82   1    79.59726342685734        111.41197437103243       8.040569334518267        # O
83   83   1    90.96792592601014        111.41197437103243       8.040569334518267        # O
84   84   1    102.33924489402649       111.41197437103243       8.040569334518267        # O
85   85   1    113.7099073931793        111.41197437103243       8.040569334518267        # O
86   86   1    125.08122636119566       111.41197437103243       8.040569334518267        # O
87   87   1    136.45188886034845       111.41197437103243       8.040569334518267        # O
88   88   1    11.371318968016363       111.41197437103243       8.040569334518267        # O
89   89   1    22.741981467169154       111.41197437103243       8.040569334518267        # O
90   90   1    34.11330049251904        111.41197437103243       8.040569334518267        # O
91   91   1    45.48396293433831        111.41197437103243       8.040569334518267        # O
92   92   1    56.85528195968819        111.41197437103243       8.040569334518267        # O
93   93   1    79.59726342685734        118.06343551981047       8.040569334518267        # O
94   94   1    90.96792592601014        118.06343551981047       8.040569334518267        # O
95   95   1    102.33924489402649       118.06343551981047       8.040569334518267        # O
96   96   1    113.7099073931793        118.06343551981047       8.040569334518267        # O
97   97   1    125.08122636119566       118.06343551981047       8.040569334518267        # O
98   98   1    136.45188886034845       118.06343551981047       8.040569334518267        # O
99   99   1    11.371318968016363       118.06343551981047       8.040569334518267        # O
100  100  1    22.741981467169154       118.06343551981047       8.040569334518267        # O
101  101  1    34.11330049251904        118.06343551981047       8.040569334518267        # O
102  102  1    45.48396293433831        118.06343551981047       8.040569334518267        # O
103  103  1    56.85528195968819        118.06343551981047       8.040569334518267        # O
104  104  1    68.22594445884098        118.06343551981047       8.040569334518267        # O
105  105  1    96.65325714691978        1.6628652728611264       8.040569334518267        # O
106  106  1    108.02457617226965       1.6628652728611264       8.040569334518267        # O
107  107  1    119.39523861408892       1.6628652728611264       8.040569334518267        # O
108  108  1    130.76655763943882       1.6628652728611264       8.040569334518267        # O
109  109  1    5.6853312209096325       1.6628652728611264       8.040569334518267        # O
110  110  1    17.05665024625952        1.6628652728611264       8.040569334518267        # O
111  111  1    28.42731274541231        1.6628652728611264       8.040569334518267        # O
112  112  1    39.79863171342867        1.6628652728611264       8.040569334518267        # O
113  113  1    108.02457617226965       8.314326421639157        8.040569334518267        # O
114  114  1    119.39523861408892       8.314326421639157        8.040569334518267        # O
115  115  1    130.76655763943882       8.314326421639157        8.040569334518267        # O
116  116  1    5.6853312209096325       8.314326421639157        8.040569334518267        # O
117  117  1    17.05665024625952        8.314326421639157        8.040569334518267        # O
118  118  1    28.42731274541231        8.314326421639157        8.040569334518267        # O
119  119  1    102.33924489402649       11.640057024694933       8.040569334518267        # O
120  120  1    113.7099073931793        11.640057024694933       8.040569334518267        # O
121  121  1    125.08122636119566       11.640057024694933       8.040569334518267        # O
122  122  1    136.45188886034845       11.640057024694933       8.040569334518267        # O
123  123  1    11.371318968016363       11.640057024694933       8.040569334518267        # O
124  124  1    22.741981467169154       11.640057024694933       8.040569334518267        # O
125  125  1    34.11330049251904        11.640057024694933       8.040569334518267        # O
126  126  1    113.7099073931793        18.291518173472962       8.040569334518267        # O
127  127  1    125.08122636119566       18.291518173472962       8.040569334518267        # O
128  128  1    136.45188886034845       18.291518173472962       8.040569334518267        # O
129  129  1    11.371318968016363       18.291518173472962       8.040569334518267        # O
130  130  1    22.741981467169154       18.291518173472962       8.040569334518267        # O
131  131  1    108.02457617226965       21.617248776528744       8.040569334518267        # O
132  132  1    119.39523861408892       21.617248776528744       8.040569334518267        # O
133  133  1    130.76655763943882       21.617248776528744       8.040569334518267        # O
134  134  1    5.6853312209096325       21.617248776528744       8.040569334518267        # O
135  135  1    17.05665024625952        21.617248776528744       8.040569334518267        # O
136  136  1    28.42731274541231        21.617248776528744       8.040569334518267        # O
137  137  1    119.39523861408892       28.26870992530677        8.040569334518267        # O
138  138  1    130.76655763943882       28.26870992530677        8.040569334518267        # O
139  139  1    5.6853312209096325       28.26870992530677        8.040569334518267        # O
140  140  1    17.05665024625952        28.26870992530677        8.040569334518267        # O
141  141  1    113.7099073931793        31.594440471029024       8.040569334518267        # O
142  142  1    125.08122636119566       31.594440471029024       8.040569334518267        # O
143  143  1    136.45188886034845       31.594440471029024       8.040569334518267        # O
144  144  1    11.371318968016363       31.594440471029024       8.040569334518267        # O
145  145  1    22.741981467169154       31.594440471029024       8.040569334518267        # O
146  146  1    125.08122636119566       38.24590161980705        8.040569334518267        # O
147  147  1    136.45188886034845       38.24590161980705        8.040569334518267        # O
148  148  1    11.371318968016363       38.24590161980705        8.040569334518267        # O
149  149  1    119.39523861408892       41.57163222286283        8.040569334518267        # O
150  150  1    130.76655763943882       41.57163222286283        8.040569334518267        # O
151  151  1    5.6853312209096325       41.57163222286283        8.040569334518267        # O
152  152  1    17.05665024625952        41.57163222286283        8.040569334518267        # O
153  153  1    119.39523861408892       48.22309337164086        8.040569334518267        # O
154  154  1    130.76655763943882       48.22309337164086        8.040569334518267        # O
155  155  1    5.6853312209096325       48.22309337164086        8.040569334518267        # O
156  156  1    17.05665024625952        48.22309337164086        8.040569334518267        # O
157  157  1    125.08122636119566       51.54882397469664        8.040569334518267        # O
158  158  1    136.45188886034845       51.54882397469664        8.040569334518267        # O
159  159  1    11.371318968016363       51.54882397469664        8.040569334518267        # O
160  160  1    113.7099073931793        58.200285123474664       8.040569334518267        # O
161  161  1    125.08122636119566       58.200285123474664       8.040569334518267        # O
162  162  1    136.45188886034845       58.200285123474664       8.040569334518267        # O
163  163  1    11.371318968016363       58.200285123474664       8.040569334518267        # O
164  164  1    22.741981467169154       58.200285123474664       8.040569334518267        # O
165  165  1    119.39523861408892       61.52601566919692        8.040569334518267        # O
166  166  1    130.76655763943882       61.52601566919692        8.040569334518267        # O
167  167  1    5.6853312209096325       61.52601566919692        8.040569334518267        # O
168  168  1    17.05665024625952        61.52601566919692        8.040569334518267        # O
169  169  1    110.61724178272448       70.27335482139507        3.98503710016194         # O
170  170  1    110.61724178272448       70.27335482139507        12.096101568874595       # O
171  171  1    110.86724178272448       63.18888097072481        3.98503710016194         # O
172  172  1    110.86724178272448       63.18888097072481        12.096101568874595       # O
173  173  1    105.18191053314807       73.16607269389186        3.98503710016194         # O
174  174  1    105.18191053314807       73.16607269389186        12.096101568874595       # O
175  175  1    116.55257300363411       69.84034211950285        3.98503710016194         # O
176  176  1    116.55257300363411       69.84034211950285        12.096101568874595       # O
177  177  1    121.98823248764229       70.27335482139507        3.98503710016194         # O
178  178  1    121.98823248764229       70.27335482139507        12.096101568874595       # O
179  179  1    119.89523861408892       64.85174624358594        3.98503710016194         # O
180  180  1    119.89523861408892       64.85174624358594        12.096101568874595       # O
181  181  1    127.92389200031724       69.84034211950285        3.98503710016194         # O
182  182  1    127.92389200031724       69.84034211950285        12.096101568874595       # O
183  183  1    133.35922324989363       70.27335482139507        3.98503710016194         # O
184  184  1    133.35922324989363       70.27335482139507        12.096101568874595       # O
185  185  1    131.26655763943882       64.85174624358594        3.98503710016194         # O
186  186  1    131.26655763943882       64.85174624358594        12.096101568874595       # O
187  187  1    2.842632787011639        69.84034211950285        3.98503710016194         # O
188  188  1    2.842632787011639        69.84034211950285        12.096101568874595       # O
189  189  1    8.278325094462998        70.27335482139507        3.98503710016194         # O
190  190  1    8.278325094462998        70.27335482139507        12.096101568874595       # O
191  191  1    6.1853312209096325       64.85174624358594        3.98503710016194         # O
192  192  1    6.1853312209096325       64.85174624358594        12.096101568874595       # O
193  193  1    14.213984607137942       69.84034211950285        3.98503710016194         # O
194  194  1    14.213984607137942       69.84034211950285        12.096101568874595       # O
195  195  1    19.64931585671434        70.27335482139507        3.98503710016194         # O
196  196  1    19.64931585671434        70.27335482139507        12.096101568874595       # O
197  197  1    17.55665024625952        64.85174624358594        3.98503710016194         # O
198  198  1    17.55665024625952        64.85174624358594        12.096101568874595       # O
199  199  1    25.58464710629073        69.84034211950285        3.98503710016194         # O
200  200  1    25.58464710629073        69.84034211950285        12.096101568874595       # O
201  201  1    31.270306618965673       73.16607269389186        3.98503710016194         # O
202  202  1    31.270306618965673       73.16607269389186        12.096101568874595       # O
203  203  1    25.58464710629073        63.18888097072481        3.98503710016194         # O
204  204  1    25.58464710629073        63.18888097072481        12.096101568874595       # O
205  205  1    114.2099073931793        74.82893799541975        3.98503710016194         # O
206  206  1    114.2099073931793        74.82893799541975        12.096101568874595       # O
207  207  1    125.58122636119566       74.82893799541975        3.98503710016194         # O
208  208  1    125.58122636119566       74.82893799541975        12.096101568874595       # O
209  209  1    0.49993435311364465      74.82893799541975        3.98503710016194         # O
210  210  1    0.49993435311364465      74.82893799541975        12.096101568874595       # O
211  211  1    11.871318968016363       74.82893799541975        3.98503710016194         # O
212  212  1    11.871318968016363       74.82893799541975        12.096101568874595       # O
213  213  1    23.241981467169154       74.82893799541975        3.98503710016194         # O
214  214  1    23.241981467169154       74.82893799541975        12.096101568874595       # O
215  215  1    104.93191053314807       80.25054657322887        3.98503710016194         # O
216  216  1    104.93191053314807       80.25054657322887        12.096101568874595       # O
217  217  1    99.49625102047314        83.14326444572566        3.98503710016194         # O
218  218  1    99.49625102047314        83.14326444572566        12.096101568874595       # O
219  219  1    110.86724178272448       79.81753387133665        3.98503710016194         # O
220  220  1    110.86724178272448       79.81753387133665        12.096101568874595       # O
221  221  1    116.30257300363411       80.25054657322887        3.98503710016194         # O
222  222  1    116.30257300363411       80.25054657322887        12.096101568874595       # O
223  223  1    122.23823248764229       79.81753387133665        3.98503710016194         # O
224  224  1    122.23823248764229       79.81753387133665        12.096101568874595       # O
225  225  1    127.67389200031724       80.25054657322887        3.98503710016194         # O
226  226  1    127.67389200031724       80.25054657322887        12.096101568874595       # O
227  227  1    133.60922324989363       79.81753387133665        3.98503710016194         # O
228  228  1    133.60922324989363       79.81753387133665        12.096101568874595       # O
229  229  1    2.592632787011638        80.25054657322887        3.98503710016194         # O
230  230  1    2.592632787011638        80.25054657322887        12.096101568874595       # O
231  231  1    8.528325094462998        79.81753387133665        3.98503710016194         # O
232  232  1    8.528325094462998        79.81753387133665        12.096101568874595       # O
233  233  1    13.963984607137942       80.25054657322887        3.98503710016194         # O
234  234  1    13.963984607137942       80.25054657322887        12.096101568874595       # O
235  235  1    19.89931585671434        79.81753387133665        3.98503710016194         # O
236  236  1    19.89931585671434        79.81753387133665        12.096101568874595       # O
237  237  1    25.33464710629073        80.25054657322887        3.98503710016194         # O
238  238  1    25.33464710629073        80.25054657322887        12.096101568874595       # O
239  239  1    31.270306618965673       79.81753387133665        3.98503710016194         # O
240  240  1    31.270306618965673       79.81753387133665        12.096101568874595       # O
241  241  1    36.95596610297385        83.14326444572566        3.98503710016194         # O
242  242  1    36.95596610297385        83.14326444572566        12.096101568874595       # O
243  243  1    108.52457617226965       84.80612974725355        3.98503710016194         # O
244  244  1    108.52457617226965       84.80612974725355        12.096101568874595       # O
245  245  1    119.89523861408892       84.80612974725355        3.98503710016194         # O
246  246  1    119.89523861408892       84.80612974725355        12.096101568874595       # O
247  247  1    131.26655763943882       84.80612974725355        3.98503710016194         # O
248  248  1    131.26655763943882       84.80612974725355        12.096101568874595       # O
249  249  1    6.1853312209096325       84.80612974725355        3.98503710016194         # O
250  250  1    6.1853312209096325       84.80612974725355        12.096101568874595       # O
251  251  1    17.55665024625952        84.80612974725355        3.98503710016194         # O
252  252  1    17.55665024625952        84.80612974725355        12.096101568874595       # O
253  253  1    28.92731274541231        84.80612974725355        3.98503710016194         # O
254  254  1    28.92731274541231        84.80612974725355        12.096101568874595       # O
255  255  1    93.81059153646495        89.79472559450369        3.98503710016194         # O
256  256  1    93.81059153646495        89.79472559450369        12.096101568874595       # O
257  257  1    99.24625102047314        90.22773829639591        3.98503710016194         # O
258  258  1    99.24625102047314        90.22773829639591        12.096101568874595       # O
259  259  1    105.18191053314807       89.79472559450369        3.98503710016194         # O
260  260  1    105.18191053314807       89.79472559450369        12.096101568874595       # O
261  261  1    110.61724178272448       90.22773829639591        3.98503710016194         # O
262  262  1    110.61724178272448       90.22773829639591        12.096101568874595       # O
263  263  1    116.55257300363411       89.79472559450369        3.98503710016194         # O
264  264  1    116.55257300363411       89.79472559450369        12.096101568874595       # O
265  265  1    121.98823248764229       90.22773829639591        3.98503710016194         # O
266  266  1    121.98823248764229       90.22773829639591        12.096101568874595       # O
267  267  1    127.92389200031724       89.79472559450369        3.98503710016194         # O
268  268  1    127.92389200031724       89.79472559450369        12.096101568874595       # O
269  269  1    133.35922324989363       90.22773829639591        3.98503710016194         # O
270  270  1    133.35922324989363       90.22773829639591        12.096101568874595       # O
271  271  1    2.842632787011639        89.79472559450369        3.98503710016194         # O
272  272  1    2.842632787011639        89.79472559450369        12.096101568874595       # O
273  273  1    8.278325094462998        90.22773829639591        3.98503710016194         # O
274  274  1    8.278325094462998        90.22773829639591        12.096101568874595       # O
275  275  1    14.213984607137942       89.79472559450369        3.98503710016194         # O
276  276  1    14.213984607137942       89.79472559450369        12.096101568874595       # O
277  277  1    19.64931585671434        90.22773829639591        3.98503710016194         # O
278  278  1    19.64931585671434        90.22773829639591        12.096101568874595       # O
279  279  1    25.58464710629073        89.79472559450369        3.98503710016194         # O
280  280  1    25.58464710629073        89.79472559450369        12.096101568874595       # O
281  281  1    31.020306618965673       90.22773829639591        3.98503710016194         # O
282  282  1    31.020306618965673       90.22773829639591        12.096101568874595       # O
283  283  1    36.95596610297385        89.79472559450369        3.98503710016194         # O
284  284  1    36.95596610297385        89.79472559450369        12.096101568874595       # O
285  285  1    42.39129732388349        90.22773829639591        3.98503710016194         # O
286  286  1    42.39129732388349        90.22773829639591        12.096101568874595       # O
287  287  1    68.72594445884098        94.78332144175383        3.98503710016194         # O
288  288  1    68.72594445884098        94.78332144175383        12.096101568874595       # O
289  289  1    62.54061320926459        91.45759086736483        3.98503710016194         # O
290  290  1    62.54061320926459        91.45759086736483        12.096101568874595       # O
291  291  1    73.91160394284915        91.45759086736483        3.98503710016194         # O
292  292  1    73.91160394284915        91.45759086736483        12.096101568874595       # O
293  293  1    80.09726342685734        94.78332144175383        3.98503710016194         # O
294  294  1    80.09726342685734        94.78332144175383        12.096101568874595       # O
295  295  1    85.28259467643375        91.45759086736483        3.98503710016194         # O
296  296  1    85.28259467643375        91.45759086736483        12.096101568874595       # O
297  297  1    91.46792592601014        94.78332144175383        3.98503710016194         # O
298  298  1    91.46792592601014        94.78332144175383        12.096101568874595       # O
299  299  1    102.83924489402649       94.78332144175383        3.98503710016194         # O
300  300  1    102.83924489402649       94.78332144175383        12.096101568874595       # O
301  301  1    114.2099073931793        94.78332144175383        3.98503710016194         # O
302  302  1    114.2099073931793        94.78332144175383        12.096101568874595       # O
303  303  1    125.58122636119566       94.78332144175383        3.98503710016194         # O
304  304  1    125.58122636119566       94.78332144175383        12.096101568874595       # O
305  305  1    0.49993435311364465      94.78332144175383        3.98503710016194         # O
306  306  1    0.49993435311364465      94.78332144175383        12.096101568874595       # O
307  307  1    11.871318968016363       94.78332144175383        3.98503710016194         # O
308  308  1    11.871318968016363       94.78332144175383        12.096101568874595       # O
309  309  1    23.241981467169154       94.78332144175383        3.98503710016194         # O
310  310  1    23.241981467169154       94.78332144175383        12.096101568874595       # O
311  311  1    34.61330049251904        94.78332144175383        3.98503710016194         # O
312  312  1    34.61330049251904        94.78332144175383        12.096101568874595       # O
313  313  1    45.98396293433831        94.78332144175383        3.98503710016194         # O
314  314  1    45.98396293433831        94.78332144175383        12.096101568874595       # O