DATA FILE Produced from netmc results (cf David Morley)
1296 atoms
4320 bonds
0 angles
0 dihedrals
0 impropers
2 atom types
0 bond types
2 bond types
0 angle types
0 dihedral types
0 improper types
0.00000 103.20034690019234 xlo xhi
0.00000 89.37412076548283 ylo yhi
0.0000 200.0000 zlo zhi

# Pair Coeffs
#
# 1  O
# 2  Si

# Bond Coeffs
# 
# 1  O-O
# 2  Si-O
# 3  O-O rep
# 4  Si-Si rep

 Masses

1 28.10000 # O 
2 32.01000 # Si

 Atoms # molecular

1    1    2    90.30013596119186        50.89359654701106        5.0                      # Si
2    2    2    90.30013596119186        50.89359654701106        11.081138669036534       # Si
3    3    2    98.90040899329702        50.89359654701106        5.0                      # Si
4    4    2    98.90040899329702        50.89359654701106        11.081138669036534       # Si
5    5    2    4.2998882546060075       50.89359654701106        5.0                      # Si
6    6    2    4.2998882546060075       50.89359654701106        11.081138669036534       # Si
7    7    2    12.900161286711164       50.89359654701106        5.0                      # Si
8    8    2    12.900161286711164       50.89359654701106        11.081138669036534       # Si
9    9    2    86.00024770658584        53.37621101271891        5.0                      # Si
10   10   2    86.00024770658584        53.37621101271891        11.081138669036534       # Si
11   11   2    94.60052073869102        53.37621101271891        5.0                      # Si
12   12   2    94.60052073869102        53.37621101271891        11.081138669036534       # Si
13   13   2    103.20029724790302       53.37621101271891        5.0                      # Si
14   14   2    103.20029724790302       53.37621101271891        11.081138669036534       # Si
15   15   2    8.600273032105157        53.37621101271891        5.0                      # Si
16   16   2    8.600273032105157        53.37621101271891        11.081138669036534       # Si
17   17   2    17.20004954131717        53.37621101271891        5.0                      # Si
18   18   2    17.20004954131717        53.37621101271891        11.081138669036534       # Si
19   19   2    86.00024770658584        58.34143994413463        5.0                      # Si
20   20   2    86.00024770658584        58.34143994413463        11.081138669036534       # Si
21   21   2    94.60052073869102        58.34143994413463        5.0                      # Si
22   22   2    94.60052073869102        58.34143994413463        11.081138669036534       # Si
23   23   2    103.20029724790302       58.34143994413463        5.0                      # Si
24   24   2    103.20029724790302       58.34143994413463        11.081138669036534       # Si
25   25   2    8.600273032105157        58.34143994413463        5.0                      # Si
26   26   2    8.600273032105157        58.34143994413463        11.081138669036534       # Si
27   27   2    17.20004954131717        58.34143994413463        5.0                      # Si
28   28   2    17.20004954131717        58.34143994413463        11.081138669036534       # Si
29   29   2    81.70035945197984        60.82405440984248        5.0                      # Si
30   30   2    81.70035945197984        60.82405440984248        11.081138669036534       # Si
31   31   2    90.30013596119186        60.82405440984248        5.0                      # Si
32   32   2    90.30013596119186        60.82405440984248        11.081138669036534       # Si
33   33   2    98.90040899329702        60.82405440984248        5.0                      # Si
34   34   2    98.90040899329702        60.82405440984248        11.081138669036534       # Si
35   35   2    4.2998882546060075       60.82405440984248        5.0                      # Si
36   36   2    4.2998882546060075       60.82405440984248        11.081138669036534       # Si
37   37   2    12.900161286711164       60.82405440984248        5.0                      # Si
38   38   2    12.900161286711164       60.82405440984248        11.081138669036534       # Si
39   39   2    21.499937795923177       60.82405440984248        5.0                      # Si
40   40   2    21.499937795923177       60.82405440984248        11.081138669036534       # Si
41   41   2    73.10008641987469        65.7892833412582         5.0                      # Si
42   42   2    73.10008641987469        65.7892833412582         11.081138669036534       # Si
43   43   2    81.70035945197984        65.7892833412582         5.0                      # Si
44   44   2    81.70035945197984        65.7892833412582         11.081138669036534       # Si
45   45   2    90.30013596119186        65.7892833412582         5.0                      # Si
46   46   2    90.30013596119186        65.7892833412582         11.081138669036534       # Si
47   47   2    98.90040899329702        65.7892833412582         5.0                      # Si
48   48   2    98.90040899329702        65.7892833412582         11.081138669036534       # Si
49   49   2    4.2998882546060075       65.7892833412582         5.0                      # Si
50   50   2    4.2998882546060075       65.7892833412582         11.081138669036534       # Si
51   51   2    12.900161286711164       65.7892833412582         5.0                      # Si
52   52   2    12.900161286711164       65.7892833412582         11.081138669036534       # Si
53   53   2    21.499937795923177       65.7892833412582         5.0                      # Si
54   54   2    21.499937795923177       65.7892833412582         11.081138669036534       # Si
55   55   2    30.10021082802833        65.7892833412582         5.0                      # Si
56   56   2    30.10021082802833        65.7892833412582         11.081138669036534       # Si
57   57   2    68.80019816526868        68.27189780696605        5.0                      # Si
58   58   2    68.80019816526868        68.27189780696605        11.081138669036534       # Si
59   59   2    77.40047119737383        68.27189780696605        5.0                      # Si
60   60   2    77.40047119737383        68.27189780696605        11.081138669036534       # Si
61   61   2    86.00024770658584        68.27189780696605        5.0                      # Si
62   62   2    86.00024770658584        68.27189780696605        11.081138669036534       # Si
63   63   2    94.60052073869102        68.27189780696605        5.0                      # Si
64   64   2    94.60052073869102        68.27189780696605        11.081138669036534       # Si
65   65   2    103.20029724790302       68.27189780696605        5.0                      # Si
66   66   2    103.20029724790302       68.27189780696605        11.081138669036534       # Si
67   67   2    8.600273032105157        68.27189780696605        5.0                      # Si
68   68   2    8.600273032105157        68.27189780696605        11.081138669036534       # Si
69   69   2    17.20004954131717        68.27189780696605        5.0                      # Si
70   70   2    17.20004954131717        68.27189780696605        11.081138669036534       # Si
71   71   2    25.800322573422328       68.27189780696605        5.0                      # Si
72   72   2    25.800322573422328       68.27189780696605        11.081138669036534       # Si
73   73   2    34.40009908263434        68.27189780696605        5.0                      # Si
74   74   2    34.40009908263434        68.27189780696605        11.081138669036534       # Si
75   75   2    60.20042165605666        73.23712673838176        5.0                      # Si
76   76   2    60.20042165605666        73.23712673838176        11.081138669036534       # Si
77   77   2    68.80019816526868        73.23712673838176        5.0                      # Si
78   78   2    68.80019816526868        73.23712673838176        11.081138669036534       # Si
79   79   2    77.40047119737383        73.23712673838176        5.0                      # Si
80   80   2    77.40047119737383        73.23712673838176        11.081138669036534       # Si
81   81   2    86.00024770658584        73.23712673838176        5.0                      # Si
82   82   2    86.00024770658584        73.23712673838176        11.081138669036534       # Si
83   83   2    94.60052073869102        73.23712673838176        5.0                      # Si
84   84   2    94.60052073869102        73.23712673838176        11.081138669036534       # Si
85   85   2    103.20029724790302       73.23712673838176        5.0                      # Si
86   86   2    103.20029724790302       73.23712673838176        11.081138669036534       # Si
87   87   2    8.600273032105157        73.23712673838176        5.0                      # Si
88   88   2    8.600273032105157        73.23712673838176        11.081138669036534       # Si
89   89   2    17.20004954131717        73.23712673838176        5.0                      # Si
90   90   2    17.20004954131717        73.23712673838176        11.081138669036534       # Si
91   91   2    25.800322573422328       73.23712673838176        5.0                      # Si
92   92   2    25.800322573422328       73.23712673838176        11.081138669036534       # Si
93   93   2    34.40009908263434        73.23712673838176        5.0                      # Si
94   94   2    34.40009908263434        73.23712673838176        11.081138669036534       # Si
95   95   2    43.0003721147395         73.23712673838176        5.0                      # Si
96   96   2    43.0003721147395         73.23712673838176        11.081138669036534       # Si
97   97   2    55.90003687855752        75.71974120408962        5.0                      # Si
98   98   2    55.90003687855752        75.71974120408962        11.081138669036534       # Si
99   99   2    64.50030991066266        75.71974120408962        5.0                      # Si
100  100  2    64.50030991066266        75.71974120408962        11.081138669036534       # Si
101  101  2    73.10008641987469        75.71974120408962        5.0                      # Si
102  102  2    73.10008641987469        75.71974120408962        11.081138669036534       # Si
103  103  2    81.70035945197984        75.71974120408962        5.0                      # Si
104  104  2    81.70035945197984        75.71974120408962        11.081138669036534       # Si
105  105  2    90.30013596119186        75.71974120408962        5.0                      # Si
106  106  2    90.30013596119186        75.71974120408962        11.081138669036534       # Si
107  107  2    98.90040899329702        75.71974120408962        5.0                      # Si
108  108  2    98.90040899329702        75.71974120408962        11.081138669036534       # Si
109  109  2    4.2998882546060075       75.71974120408962        5.0                      # Si
110  110  2    4.2998882546060075       75.71974120408962        11.081138669036534       # Si
111  111  2    12.900161286711164       75.71974120408962        5.0                      # Si
112  112  2    12.900161286711164       75.71974120408962        11.081138669036534       # Si
113  113  2    21.499937795923177       75.71974120408962        5.0                      # Si
114  114  2    21.499937795923177       75.71974120408962        11.081138669036534       # Si
115  115  2    30.10021082802833        75.71974120408962        5.0                      # Si
116  116  2    30.10021082802833        75.71974120408962        11.081138669036534       # Si
117  117  2    38.699987337240344       75.71974120408962        5.0                      # Si
118  118  2    38.699987337240344       75.71974120408962        11.081138669036534       # Si
119  119  2    47.30026036934551        75.71974120408962        5.0                      # Si
120  120  2    47.30026036934551        75.71974120408962        11.081138669036534       # Si
121  121  2    55.90003687855752        80.68497013550534        5.0                      # Si
122  122  2    55.90003687855752        80.68497013550534        11.081138669036534       # Si
123  123  2    64.50030991066266        80.68497013550534        5.0                      # Si
124  124  2    64.50030991066266        80.68497013550534        11.081138669036534       # Si
125  125  2    73.10008641987469        80.68497013550534        5.0                      # Si
126  126  2    73.10008641987469        80.68497013550534        11.081138669036534       # Si
127  127  2    81.70035945197984        80.68497013550534        5.0                      # Si
128  128  2    81.70035945197984        80.68497013550534        11.081138669036534       # Si
129  129  2    90.30013596119186        80.68497013550534        5.0                      # Si
130  130  2    90.30013596119186        80.68497013550534        11.081138669036534       # Si
131  131  2    98.90040899329702        80.68497013550534        5.0                      # Si
132  132  2    98.90040899329702        80.68497013550534        11.081138669036534       # Si
133  133  2    4.2998882546060075       80.68497013550534        5.0                      # Si
134  134  2    4.2998882546060075       80.68497013550534        11.081138669036534       # Si
135  135  2    12.900161286711164       80.68497013550534        5.0                      # Si
136  136  2    12.900161286711164       80.68497013550534        11.081138669036534       # Si
137  137  2    21.499937795923177       80.68497013550534        5.0                      # Si
138  138  2    21.499937795923177       80.68497013550534        11.081138669036534       # Si
139  139  2    30.10021082802833        80.68497013550534        5.0                      # Si
140  140  2    30.10021082802833        80.68497013550534        11.081138669036534       # Si
141  141  2    38.699987337240344       80.68497013550534        5.0                      # Si
142  142  2    38.699987337240344       80.68497013550534        11.081138669036534       # Si
143  143  2    47.30026036934551        80.68497013550534        5.0                      # Si
144  144  2    47.30026036934551        80.68497013550534        11.081138669036534       # Si
145  145  2    51.60014862395151        83.16758460121319        5.0                      # Si
146  146  2    51.60014862395151        83.16758460121319        11.081138669036534       # Si
147  147  2    60.20042165605666        83.16758460121319        5.0                      # Si
148  148  2    60.20042165605666        83.16758460121319        11.081138669036534       # Si
149  149  2    68.80019816526868        83.16758460121319        5.0                      # Si
150  150  2    68.80019816526868        83.16758460121319        11.081138669036534       # Si
151  151  2    77.40047119737383        83.16758460121319        5.0                      # Si
152  152  2    77.40047119737383        83.16758460121319        11.081138669036534       # Si
153  153  2    86.00024770658584        83.16758460121319        5.0                      # Si
154  154  2    86.00024770658584        83.16758460121319        11.081138669036534       # Si
155  155  2    94.60052073869102        83.16758460121319        5.0                      # Si
156  156  2    94.60052073869102        83.16758460121319        11.081138669036534       # Si
157  157  2    103.20029724790302       83.16758460121319        5.0                      # Si
158  158  2    103.20029724790302       83.16758460121319        11.081138669036534       # Si
159  159  2    8.600273032105157        83.16758460121319        5.0                      # Si
160  160  2    8.600273032105157        83.16758460121319        11.081138669036534       # Si
161  161  2    17.20004954131717        83.16758460121319        5.0                      # Si
162  162  2    17.20004954131717        83.16758460121319        11.081138669036534       # Si
163  163  2    25.800322573422328       83.16758460121319        5.0                      # Si
164  164  2    25.800322573422328       83.16758460121319        11.081138669036534       # Si
165  165  2    34.40009908263434        83.16758460121319        5.0                      # Si
166  166  2    34.40009908263434        83.16758460121319        11.081138669036534       # Si
167  167  2    43.0003721147395         83.16758460121319        5.0                      # Si
168  168  2    43.0003721147395         83.16758460121319        11.081138669036534       # Si
169  169  2    60.20042165605666        88.1328135326289         5.0                      # Si
170  170  2    60.20042165605666        88.1328135326289         11.081138669036534       # Si
171  171  2    68.80019816526868        88.1328135326289         5.0                      # Si
172  172  2    68.80019816526868        88.1328135326289         11.081138669036534       # Si
173  173  2    77.40047119737383        88.1328135326289         5.0                      # Si
174  174  2    77.40047119737383        88.1328135326289         11.081138669036534       # Si
175  175  2    86.00024770658584        88.1328135326289         5.0                      # Si
176  176  2    86.00024770658584        88.1328135326289         11.081138669036534       # Si
177  177  2    94.60052073869102        88.1328135326289         5.0                      # Si
178  178  2    94.60052073869102        88.1328135326289         11.081138669036534       # Si
179  179  2    103.20029724790302       88.1328135326289         5.0                      # Si
180  180  2    103.20029724790302       88.1328135326289         11.081138669036534       # Si
181  181  2    8.600273032105157        88.1328135326289         5.0                      # Si
182  182  2    8.600273032105157        88.1328135326289         11.081138669036534       # Si
183  183  2    17.20004954131717        88.1328135326289         5.0                      # Si
184  184  2    17.20004954131717        88.1328135326289         11.081138669036534       # Si
185  185  2    25.800322573422328       88.1328135326289         5.0                      # Si
186  186  2    25.800322573422328       88.1328135326289         11.081138669036534       # Si
187  187  2    34.40009908263434        88.1328135326289         5.0                      # Si
188  188  2    34.40009908263434        88.1328135326289         11.081138669036534       # Si
189  189  2    43.0003721147395         88.1328135326289         5.0                      # Si
190  190  2    43.0003721147395         88.1328135326289         11.081138669036534       # Si
191  191  2    51.60014862395151        88.1328135326289         5.0                      # Si
192  192  2    51.60014862395151        88.1328135326289         11.081138669036534       # Si
193  193  2    55.90003687855752        1.2413072328539283       5.0                      # Si
194  194  2    55.90003687855752        1.2413072328539283       11.081138669036534       # Si
195  195  2    64.50030991066266        1.2413072328539283       5.0                      # Si
196  196  2    64.50030991066266        1.2413072328539283       11.081138669036534       # Si
197  197  2    73.10008641987469        1.2413072328539283       5.0                      # Si
198  198  2    73.10008641987469        1.2413072328539283       11.081138669036534       # Si
199  199  2    81.70035945197984        1.2413072328539283       5.0                      # Si
200  200  2    81.70035945197984        1.2413072328539283       11.081138669036534       # Si
201  201  2    90.30013596119186        1.2413072328539283       5.0                      # Si
202  202  2    90.30013596119186        1.2413072328539283       11.081138669036534       # Si
203  203  2    98.90040899329702        1.2413072328539283       5.0                      # Si
204  204  2    98.90040899329702        1.2413072328539283       11.081138669036534       # Si
205  205  2    4.2998882546060075       1.2413072328539283       5.0                      # Si
206  206  2    4.2998882546060075       1.2413072328539283       11.081138669036534       # Si
207  207  2    12.900161286711164       1.2413072328539283       5.0                      # Si
208  208  2    12.900161286711164       1.2413072328539283       11.081138669036534       # Si
209  209  2    21.499937795923177       1.2413072328539283       5.0                      # Si
210  210  2    21.499937795923177       1.2413072328539283       11.081138669036534       # Si
211  211  2    30.10021082802833        1.2413072328539283       5.0                      # Si
212  212  2    30.10021082802833        1.2413072328539283       11.081138669036534       # Si
213  213  2    38.699987337240344       1.2413072328539283       5.0                      # Si
214  214  2    38.699987337240344       1.2413072328539283       11.081138669036534       # Si
215  215  2    47.30026036934551        1.2413072328539283       5.0                      # Si
216  216  2    47.30026036934551        1.2413072328539283       11.081138669036534       # Si
217  217  2    55.90003687855752        6.20653616426964         5.0                      # Si
218  218  2    55.90003687855752        6.20653616426964         11.081138669036534       # Si
219  219  2    64.50030991066266        6.20653616426964         5.0                      # Si
220  220  2    64.50030991066266        6.20653616426964         11.081138669036534       # Si
221  221  2    73.10008641987469        6.20653616426964         5.0                      # Si
222  222  2    73.10008641987469        6.20653616426964         11.081138669036534       # Si
223  223  2    81.70035945197984        6.20653616426964         5.0                      # Si
224  224  2    81.70035945197984        6.20653616426964         11.081138669036534       # Si
225  225  2    90.30013596119186        6.20653616426964         5.0                      # Si
226  226  2    90.30013596119186        6.20653616426964         11.081138669036534       # Si
227  227  2    98.90040899329702        6.20653616426964         5.0                      # Si
228  228  2    98.90040899329702        6.20653616426964         11.081138669036534       # Si
229  229  2    4.2998882546060075       6.20653616426964         5.0                      # Si
230  230  2    4.2998882546060075       6.20653616426964         11.081138669036534       # Si
231  231  2    12.900161286711164       6.20653616426964         5.0                      # Si
232  232  2    12.900161286711164       6.20653616426964         11.081138669036534       # Si
233  233  2    21.499937795923177       6.20653616426964         5.0                      # Si
234  234  2    21.499937795923177       6.20653616426964         11.081138669036534       # Si
235  235  2    30.10021082802833        6.20653616426964         5.0                      # Si
236  236  2    30.10021082802833        6.20653616426964         11.081138669036534       # Si
237  237  2    38.699987337240344       6.20653616426964         5.0                      # Si
238  238  2    38.699987337240344       6.20653616426964         11.081138669036534       # Si
239  239  2    47.30026036934551        6.20653616426964         5.0                      # Si
240  240  2    47.30026036934551        6.20653616426964         11.081138669036534       # Si
241  241  2    51.60014862395151        8.689150629977497        5.0                      # Si
242  242  2    51.60014862395151        8.689150629977497        11.081138669036534       # Si
243  243  2    60.20042165605666        8.689150629977497        5.0                      # Si
244  244  2    60.20042165605666        8.689150629977497        11.081138669036534       # Si
245  245  2    68.80019816526868        8.689150629977497        5.0                      # Si
246  246  2    68.80019816526868        8.689150629977497        11.081138669036534       # Si
247  247  2    77.40047119737383        8.689150629977497        5.0                      # Si
248  248  2    77.40047119737383        8.689150629977497        11.081138669036534       # Si
249  249  2    86.00024770658584        8.689150629977497        5.0                      # Si
250  250  2    86.00024770658584        8.689150629977497        11.081138669036534       # Si
251  251  2    94.60052073869102        8.689150629977497        5.0                      # Si
252  252  2    94.60052073869102        8.689150629977497        11.081138669036534       # Si
253  253  2    103.20029724790302       8.689150629977497        5.0                      # Si
254  254  2    103.20029724790302       8.689150629977497        11.081138669036534       # Si
255  255  2    8.600273032105157        8.689150629977497        5.0                      # Si
256  256  2    8.600273032105157        8.689150629977497        11.081138669036534       # Si
257  257  2    17.20004954131717        8.689150629977497        5.0                      # Si
258  258  2    17.20004954131717        8.689150629977497        11.081138669036534       # Si
259  259  2    25.800322573422328       8.689150629977497        5.0                      # Si
260  260  2    25.800322573422328       8.689150629977497        11.081138669036534       # Si
261  261  2    34.40009908263434        8.689150629977497        5.0                      # Si
262  262  2    34.40009908263434        8.689150629977497        11.081138669036534       # Si
263  263  2    43.0003721147395         8.689150629977497        5.0                      # Si
264  264  2    43.0003721147395         8.689150629977497        11.081138669036534       # Si
265  265  2    60.20042165605666        13.654379561393212       5.0                      # Si
266  266  2    60.20042165605666        13.654379561393212       11.081138669036534       # Si
267  267  2    68.80019816526868        13.654379561393212       5.0                      # Si
268  268  2    68.80019816526868        13.654379561393212       11.081138669036534       # Si
269  269  2    77.40047119737383        13.654379561393212       5.0                      # Si
270  270  2    77.40047119737383        13.654379561393212       11.081138669036534       # Si
271  271  2    86.00024770658584        13.654379561393212       5.0                      # Si
272  272  2    86.00024770658584        13.654379561393212       11.081138669036534       # Si
273  273  2    94.60052073869102        13.654379561393212       5.0                      # Si
274  274  2    94.60052073869102        13.654379561393212       11.081138669036534       # Si
275  275  2    103.20029724790302       13.654379561393212       5.0                      # Si
276  276  2    103.20029724790302       13.654379561393212       11.081138669036534       # Si
277  277  2    8.600273032105157        13.654379561393212       5.0                      # Si
278  278  2    8.600273032105157        13.654379561393212       11.081138669036534       # Si
279  279  2    17.20004954131717        13.654379561393212       5.0                      # Si
280  280  2    17.20004954131717        13.654379561393212       11.081138669036534       # Si
281  281  2    25.800322573422328       13.654379561393212       5.0                      # Si
282  282  2    25.800322573422328       13.654379561393212       11.081138669036534       # Si
283  283  2    34.40009908263434        13.654379561393212       5.0                      # Si
284  284  2    34.40009908263434        13.654379561393212       11.081138669036534       # Si
285  285  2    43.0003721147395         13.654379561393212       5.0                      # Si
286  286  2    43.0003721147395         13.654379561393212       11.081138669036534       # Si
287  287  2    51.60014862395151        13.654379561393212       5.0                      # Si
288  288  2    51.60014862395151        13.654379561393212       11.081138669036534       # Si
289  289  2    55.90003687855752        16.136994027101068       5.0                      # Si
290  290  2    55.90003687855752        16.136994027101068       11.081138669036534       # Si
291  291  2    64.50030991066266        16.136994027101068       5.0                      # Si
292  292  2    64.50030991066266        16.136994027101068       11.081138669036534       # Si
293  293  2    73.10008641987469        16.136994027101068       5.0                      # Si
294  294  2    73.10008641987469        16.136994027101068       11.081138669036534       # Si
295  295  2    81.70035945197984        16.136994027101068       5.0                      # Si
296  296  2    81.70035945197984        16.136994027101068       11.081138669036534       # Si
297  297  2    90.30013596119186        16.136994027101068       5.0                      # Si
298  298  2    90.30013596119186        16.136994027101068       11.081138669036534       # Si
299  299  2    98.90040899329702        16.136994027101068       5.0                      # Si
300  300  2    98.90040899329702        16.136994027101068       11.081138669036534       # Si
301  301  2    4.2998882546060075       16.136994027101068       5.0                      # Si
302  302  2    4.2998882546060075       16.136994027101068       11.081138669036534       # Si
303  303  2    12.900161286711164       16.136994027101068       5.0                      # Si
304  304  2    12.900161286711164       16.136994027101068       11.081138669036534       # Si
305  305  2    21.499937795923177       16.136994027101068       5.0                      # Si
306  306  2    21.499937795923177       16.136994027101068       11.081138669036534       # Si
307  307  2    30.10021082802833        16.136994027101068       5.0                      # Si
308  308  2    30.10021082802833        16.136994027101068       11.081138669036534       # Si
309  309  2    38.699987337240344       16.136994027101068       5.0                      # Si
310  310  2    38.699987337240344       16.136994027101068       11.081138669036534       # Si
311  311  2    47.30026036934551        16.136994027101068       5.0                      # Si