LAMMPS (22 Jul 2025 - Update 1)
OMP_NUM_THREADS environment is not set. Defaulting to 1 thread.
  using 1 OpenMP thread(s) per MPI task
Reading data file ...
  orthogonal box = (0 0 -0.5) to (42.988371 37.229021 0.5)
  1 by 1 by 1 MPI processor grid
  reading atoms ...
  1232 atoms
  scanning bonds ...
  3 = max bonds/atom
  scanning angles ...
  3 = max angles/atom
  orthogonal box = (0 0 -0.5) to (42.988371 37.229021 0.5)
  1 by 1 by 1 MPI processor grid
  reading bonds ...
  1848 bonds
  reading angles ...
  3696 angles
Finding 1-2 1-3 1-4 neighbors ...
  special bond factors lj:    0        0        0       
  special bond factors coul:  0        0        0       
     3 = max # of 1-2 neighbors
     6 = max # of 1-3 neighbors
    18 = max # of 1-4 neighbors
    18 = max # of special neighbors
  special bonds CPU = 0.001 seconds
  read_data CPU = 0.029 seconds
Changing box ...
  orthogonal box = (-0.60396231 0 -0.5) to (43.592333 37.229021 0.5)
  orthogonal box = (-0.60396231 -0.50138 -0.5) to (43.592333 37.730401 0.5)
Setting up sd style minimization ...
  Unit style    : electron
  Current step  : 0
WARNING: No pairwise cutoff or binsize set. Atom sorting therefore disabled. (src/atom.cpp:2499)
WARNING: Inconsistent image flags
For more information see https://docs.lammps.org/err0027 (src/domain.cpp:1052)
Per MPI rank memory allocation (min/avg/max) = 8.514 | 8.514 | 8.514 Mbytes
---
keywords: ['Step', 'PotEng', 'KinEng', 'E_pair', 'E_bond', 'TotEng', 'Volume', 'Temp', ]
data:
  - [0, 13.5350593010616, 0, 0, 9.91324554835292, 13.5350593010616, 1689.703074476, 0, ]
  - [705, 8.76948915689842, 0, 0, 4.68566163274787, 8.76948915689842, 1689.703074476, 0, ]
...
Loop time of 0.303963 on 1 procs for 705 steps with 1232 atoms

99.8% CPU use with 1 MPI tasks x 1 OpenMP threads

Minimization stats:
  Stopping criterion = energy tolerance
  Energy initial, next-to-last, final = 
      13.5350593010616   8.76949786625536   8.76948915689842
  Force two-norm initial, final = 4.7335402 0.0094124965
  Force max component initial, final = 1.349686 0.00050530478
  Final line search alpha, max atom move = 1 0.00050530478
  Iterations, force evaluations = 705 1406

MPI task timing breakdown:
Section |  min time  |  avg time  |  max time  |%varavg| %total
---------------------------------------------------------------
Pair    | 0          | 0          | 0          |   0.0 |  0.00
Bond    | 0.27655    | 0.27655    | 0.27655    |   0.0 | 90.98
Neigh   | 0          | 0          | 0          |   0.0 |  0.00
Comm    | 0.0033274  | 0.0033274  | 0.0033274  |   0.0 |  1.09
Output  | 0          | 0          | 0          |   0.0 |  0.00
Modify  | 0          | 0          | 0          |   0.0 |  0.00
Other   |            | 0.02408    |            |       |  7.92

Nlocal:           1232 ave        1232 max        1232 min
Histogram: 1 0 0 0 0 0 0 0 0 0
Nghost:            539 ave         539 max         539 min
Histogram: 1 0 0 0 0 0 0 0 0 0
Neighs:              0 ave           0 max           0 min
Histogram: 1 0 0 0 0 0 0 0 0 0

Total # of neighbors = 0
Ave neighs/atom = 0
Ave special neighs/atom = 17.926948
Neighbor list builds = 0
Dangerous builds = 0
Total wall time: 0:00:00
