DATA FILE Produced from netmc results (cf David Morley)
7392 atoms
24640 bonds
0 angles
0 dihedrals
0 impropers
2 atom types
0 bond types
2 bond types
0 angle types
0 dihedral types
0 improper types
0.00000 246.46748248356758 xlo xhi
0.00000 213.4471010223549 ylo yhi
0.0000 200.0000 zlo zhi

# Pair Coeffs
#
# 1  O
# 2  Si

# Bond Coeffs
# 
# 1  O-O
# 2  Si-O
# 3  O-O rep
# 4  Si-Si rep

 Masses

1 28.10000 # O 
2 32.01000 # Si

 Atoms # molecular

1    1    2    175.37087470126195       113.56480374907343       5.0                      # Si
2    2    2    175.37087470126195       113.56480374907343       11.081138669036534       # Si
3    3    2    184.85066248794965       113.56480374907343       5.0                      # Si
4    4    2    184.85066248794965       113.56480374907343       11.081138669036534       # Si
5    5    2    194.32990297437834       113.56480374907343       5.0                      # Si
6    6    2    194.32990297437834       113.56480374907343       11.081138669036534       # Si
7    7    2    203.80969076106604       113.56480374907343       5.0                      # Si
8    8    2    203.80969076106604       113.56480374907343       11.081138669036534       # Si
9    9    2    213.28893124749476       113.56480374907343       5.0                      # Si
10   10   2    213.28893124749476       113.56480374907343       11.081138669036534       # Si
11   11   2    222.76871903418245       113.56480374907343       5.0                      # Si
12   12   2    222.76871903418245       113.56480374907343       11.081138669036534       # Si
13   13   2    232.24795952061112       113.56480374907343       5.0                      # Si
14   14   2    232.24795952061112       113.56480374907343       11.081138669036534       # Si
15   15   2    241.72774730729884       113.56480374907343       5.0                      # Si
16   16   2    241.72774730729884       113.56480374907343       11.081138669036534       # Si
17   17   2    4.739620243214342        113.56480374907343       5.0                      # Si
18   18   2    4.739620243214342        113.56480374907343       11.081138669036534       # Si
19   19   2    14.219408029902059       113.56480374907343       5.0                      # Si
20   20   2    14.219408029902059       113.56480374907343       11.081138669036534       # Si
21   21   2    23.69864851633074        113.56480374907343       5.0                      # Si
22   22   2    23.69864851633074        113.56480374907343       11.081138669036534       # Si
23   23   2    33.17843630301845        113.56480374907343       5.0                      # Si
24   24   2    33.17843630301845        113.56480374907343       11.081138669036534       # Si
25   25   2    42.657676789447144       113.56480374907343       5.0                      # Si
26   26   2    42.657676789447144       113.56480374907343       11.081138669036534       # Si
27   27   2    52.13746457613485        113.56480374907343       5.0                      # Si
28   28   2    52.13746457613485        113.56480374907343       11.081138669036534       # Si
29   29   2    61.61670506256354        113.56480374907343       5.0                      # Si
30   30   2    61.61670506256354        113.56480374907343       11.081138669036534       # Si
31   31   2    71.09649284925125        113.56480374907343       5.0                      # Si
32   32   2    71.09649284925125        113.56480374907343       11.081138669036534       # Si
33   33   2    80.57573333567994        113.56480374907343       5.0                      # Si
34   34   2    80.57573333567994        113.56480374907343       11.081138669036534       # Si
35   35   2    170.6312544580476        116.30130504423182       5.0                      # Si
36   36   2    170.6312544580476        116.30130504423182       11.081138669036534       # Si
37   37   2    180.1110422447353        116.30130504423182       5.0                      # Si
38   38   2    180.1110422447353        116.30130504423182       11.081138669036534       # Si
39   39   2    189.59028273116397       116.30130504423182       5.0                      # Si
40   40   2    189.59028273116397       116.30130504423182       11.081138669036534       # Si
41   41   2    199.07007051785172       116.30130504423182       5.0                      # Si
42   42   2    199.07007051785172       116.30130504423182       11.081138669036534       # Si
43   43   2    208.54931100428038       116.30130504423182       5.0                      # Si
44   44   2    208.54931100428038       116.30130504423182       11.081138669036534       # Si
45   45   2    218.02909879096813       116.30130504423182       5.0                      # Si
46   46   2    218.02909879096813       116.30130504423182       11.081138669036534       # Si
47   47   2    227.5083392773968        116.30130504423182       5.0                      # Si
48   48   2    227.5083392773968        116.30130504423182       11.081138669036534       # Si
49   49   2    236.98812706408447       116.30130504423182       5.0                      # Si
50   50   2    236.98812706408447       116.30130504423182       11.081138669036534       # Si
51   51   2    246.4673675505132        116.30130504423182       5.0                      # Si
52   52   2    246.4673675505132        116.30130504423182       11.081138669036534       # Si
53   53   2    9.479787786687716        116.30130504423182       5.0                      # Si
54   54   2    9.479787786687716        116.30130504423182       11.081138669036534       # Si
55   55   2    18.9590282731164         116.30130504423182       5.0                      # Si
56   56   2    18.9590282731164         116.30130504423182       11.081138669036534       # Si
57   57   2    28.438816059804118       116.30130504423182       5.0                      # Si
58   58   2    28.438816059804118       116.30130504423182       11.081138669036534       # Si
59   59   2    37.9180565462328         116.30130504423182       5.0                      # Si
60   60   2    37.9180565462328         116.30130504423182       11.081138669036534       # Si
61   61   2    47.397844332920506       116.30130504423182       5.0                      # Si
62   62   2    47.397844332920506       116.30130504423182       11.081138669036534       # Si
63   63   2    56.8770848193492         116.30130504423182       5.0                      # Si
64   64   2    56.8770848193492         116.30130504423182       11.081138669036534       # Si
65   65   2    66.3568726060369         116.30130504423182       5.0                      # Si
66   66   2    66.3568726060369         116.30130504423182       11.081138669036534       # Si
67   67   2    75.8361130924656         116.30130504423182       5.0                      # Si
68   68   2    75.8361130924656         116.30130504423182       11.081138669036534       # Si
69   69   2    85.31590087915332        116.30130504423182       5.0                      # Si
70   70   2    85.31590087915332        116.30130504423182       11.081138669036534       # Si
71   71   2    170.6312544580476        121.77430763454862       5.0                      # Si
72   72   2    170.6312544580476        121.77430763454862       11.081138669036534       # Si
73   73   2    180.1110422447353        121.77430763454862       5.0                      # Si
74   74   2    180.1110422447353        121.77430763454862       11.081138669036534       # Si
75   75   2    189.59028273116397       121.77430763454862       5.0                      # Si
76   76   2    189.59028273116397       121.77430763454862       11.081138669036534       # Si
77   77   2    199.07007051785172       121.77430763454862       5.0                      # Si
78   78   2    199.07007051785172       121.77430763454862       11.081138669036534       # Si
79   79   2    208.54931100428038       121.77430763454862       5.0                      # Si
80   80   2    208.54931100428038       121.77430763454862       11.081138669036534       # Si
81   81   2    218.02909879096813       121.77430763454862       5.0                      # Si
82   82   2    218.02909879096813       121.77430763454862       11.081138669036534       # Si
83   83   2    227.5083392773968        121.77430763454862       5.0                      # Si
84   84   2    227.5083392773968        121.77430763454862       11.081138669036534       # Si
85   85   2    236.98812706408447       121.77430763454862       5.0                      # Si
86   86   2    236.98812706408447       121.77430763454862       11.081138669036534       # Si
87   87   2    246.4673675505132        121.77430763454862       5.0                      # Si
88   88   2    246.4673675505132        121.77430763454862       11.081138669036534       # Si
89   89   2    9.479787786687716        121.77430763454862       5.0                      # Si
90   90   2    9.479787786687716        121.77430763454862       11.081138669036534       # Si
91   91   2    18.9590282731164         121.77430763454862       5.0                      # Si
92   92   2    18.9590282731164         121.77430763454862       11.081138669036534       # Si
93   93   2    28.438816059804118       121.77430763454862       5.0                      # Si
94   94   2    28.438816059804118       121.77430763454862       11.081138669036534       # Si
95   95   2    37.9180565462328         121.77430763454862       5.0                      # Si
96   96   2    37.9180565462328         121.77430763454862       11.081138669036534       # Si
97   97   2    47.397844332920506       121.77430763454862       5.0                      # Si
98   98   2    47.397844332920506       121.77430763454862       11.081138669036534       # Si
99   99   2    56.8770848193492         121.77430763454862       5.0                      # Si
100  100  2    56.8770848193492         121.77430763454862       11.081138669036534       # Si
101  101  2    66.3568726060369         121.77430763454862       5.0                      # Si
102  102  2    66.3568726060369         121.77430763454862       11.081138669036534       # Si
103  103  2    75.8361130924656         121.77430763454862       5.0                      # Si
104  104  2    75.8361130924656         121.77430763454862       11.081138669036534       # Si
105  105  2    85.31590087915332        121.77430763454862       5.0                      # Si
106  106  2    85.31590087915332        121.77430763454862       11.081138669036534       # Si
107  107  2    175.37087470126195       124.51080892970703       5.0                      # Si
108  108  2    175.37087470126195       124.51080892970703       11.081138669036534       # Si
109  109  2    184.85066248794965       124.51080892970703       5.0                      # Si
110  110  2    184.85066248794965       124.51080892970703       11.081138669036534       # Si
111  111  2    194.32990297437834       124.51080892970703       5.0                      # Si
112  112  2    194.32990297437834       124.51080892970703       11.081138669036534       # Si
113  113  2    203.80969076106604       124.51080892970703       5.0                      # Si
114  114  2    203.80969076106604       124.51080892970703       11.081138669036534       # Si
115  115  2    213.28893124749476       124.51080892970703       5.0                      # Si
116  116  2    213.28893124749476       124.51080892970703       11.081138669036534       # Si
117  117  2    222.76871903418245       124.51080892970703       5.0                      # Si
118  118  2    222.76871903418245       124.51080892970703       11.081138669036534       # Si
119  119  2    232.24795952061112       124.51080892970703       5.0                      # Si
120  120  2    232.24795952061112       124.51080892970703       11.081138669036534       # Si
121  121  2    241.72774730729884       124.51080892970703       5.0                      # Si
122  122  2    241.72774730729884       124.51080892970703       11.081138669036534       # Si
123  123  2    4.739620243214342        124.51080892970703       5.0                      # Si
124  124  2    4.739620243214342        124.51080892970703       11.081138669036534       # Si
125  125  2    14.219408029902059       124.51080892970703       5.0                      # Si
126  126  2    14.219408029902059       124.51080892970703       11.081138669036534       # Si
127  127  2    23.69864851633074        124.51080892970703       5.0                      # Si
128  128  2    23.69864851633074        124.51080892970703       11.081138669036534       # Si
129  129  2    33.17843630301845        124.51080892970703       5.0                      # Si
130  130  2    33.17843630301845        124.51080892970703       11.081138669036534       # Si
131  131  2    42.657676789447144       124.51080892970703       5.0                      # Si
132  132  2    42.657676789447144       124.51080892970703       11.081138669036534       # Si
133  133  2    52.13746457613485        124.51080892970703       5.0                      # Si
134  134  2    52.13746457613485        124.51080892970703       11.081138669036534       # Si
135  135  2    61.61670506256354        124.51080892970703       5.0                      # Si
136  136  2    61.61670506256354        124.51080892970703       11.081138669036534       # Si
137  137  2    71.09649284925125        124.51080892970703       5.0                      # Si
138  138  2    71.09649284925125        124.51080892970703       11.081138669036534       # Si
139  139  2    80.57573333567994        124.51080892970703       5.0                      # Si
140  140  2    80.57573333567994        124.51080892970703       11.081138669036534       # Si
141  141  2    165.89163421483326       129.9838115200238        5.0                      # Si
142  142  2    165.89163421483326       129.9838115200238        11.081138669036534       # Si
143  143  2    175.37087470126195       129.9838115200238        5.0                      # Si
144  144  2    175.37087470126195       129.9838115200238        11.081138669036534       # Si
145  145  2    184.85066248794965       129.9838115200238        5.0                      # Si
146  146  2    184.85066248794965       129.9838115200238        11.081138669036534       # Si
147  147  2    194.32990297437834       129.9838115200238        5.0                      # Si
148  148  2    194.32990297437834       129.9838115200238        11.081138669036534       # Si
149  149  2    203.80969076106604       129.9838115200238        5.0                      # Si
150  150  2    203.80969076106604       129.9838115200238        11.081138669036534       # Si
151  151  2    213.28893124749476       129.9838115200238        5.0                      # Si
152  152  2    213.28893124749476       129.9838115200238        11.081138669036534       # Si
153  153  2    222.76871903418245       129.9838115200238        5.0                      # Si
154  154  2    222.76871903418245       129.9838115200238        11.081138669036534       # Si
155  155  2    232.24795952061112       129.9838115200238        5.0                      # Si
156  156  2    232.24795952061112       129.9838115200238        11.081138669036534       # Si
157  157  2    241.72774730729884       129.9838115200238        5.0                      # Si
158  158  2    241.72774730729884       129.9838115200238        11.081138669036534       # Si
159  159  2    4.739620243214342        129.9838115200238        5.0                      # Si
160  160  2    4.739620243214342        129.9838115200238        11.081138669036534       # Si
161  161  2    14.219408029902059       129.9838115200238        5.0                      # Si
162  162  2    14.219408029902059       129.9838115200238        11.081138669036534       # Si
163  163  2    23.69864851633074        129.9838115200238        5.0                      # Si
164  164  2    23.69864851633074        129.9838115200238        11.081138669036534       # Si
165  165  2    33.17843630301845        129.9838115200238        5.0                      # Si
166  166  2    33.17843630301845        129.9838115200238        11.081138669036534       # Si
167  167  2    42.657676789447144       129.9838115200238        5.0                      # Si
168  168  2    42.657676789447144       129.9838115200238        11.081138669036534       # Si
169  169  2    52.13746457613485        129.9838115200238        5.0                      # Si
170  170  2    52.13746457613485        129.9838115200238        11.081138669036534       # Si
171  171  2    61.61670506256354        129.9838115200238        5.0                      # Si
172  172  2    61.61670506256354        129.9838115200238        11.081138669036534       # Si
173  173  2    71.09649284925125        129.9838115200238        5.0                      # Si
174  174  2    71.09649284925125        129.9838115200238        11.081138669036534       # Si
175  175  2    80.57573333567994        129.9838115200238        5.0                      # Si
176  176  2    80.57573333567994        129.9838115200238        11.081138669036534       # Si
177  177  2    90.05552112236765        129.9838115200238        5.0                      # Si
178  178  2    90.05552112236765        129.9838115200238        11.081138669036534       # Si
179  179  2    170.6312544580476        132.7203128151822        5.0                      # Si
180  180  2    170.6312544580476        132.7203128151822        11.081138669036534       # Si
181  181  2    180.1110422447353        132.7203128151822        5.0                      # Si
182  182  2    180.1110422447353        132.7203128151822        11.081138669036534       # Si
183  183  2    189.59028273116397       132.7203128151822        5.0                      # Si
184  184  2    189.59028273116397       132.7203128151822        11.081138669036534       # Si
185  185  2    199.07007051785172       132.7203128151822        5.0                      # Si
186  186  2    199.07007051785172       132.7203128151822        11.081138669036534       # Si
187  187  2    208.54931100428038       132.7203128151822        5.0                      # Si
188  188  2    208.54931100428038       132.7203128151822        11.081138669036534       # Si
189  189  2    218.02909879096813       132.7203128151822        5.0                      # Si
190  190  2    218.02909879096813       132.7203128151822        11.081138669036534       # Si
191  191  2    227.5083392773968        132.7203128151822        5.0                      # Si
192  192  2    227.5083392773968        132.7203128151822        11.081138669036534       # Si
193  193  2    236.98812706408447       132.7203128151822        5.0                      # Si
194  194  2    236.98812706408447       132.7203128151822        11.081138669036534       # Si
195  195  2    246.4673675505132        132.7203128151822        5.0                      # Si
196  196  2    246.4673675505132        132.7203128151822        11.081138669036534       # Si
197  197  2    9.479787786687716        132.7203128151822        5.0                      # Si
198  198  2    9.479787786687716        132.7203128151822        11.081138669036534       # Si
199  199  2    18.9590282731164         132.7203128151822        5.0                      # Si
200  200  2    18.9590282731164         132.7203128151822        11.081138669036534       # Si
201  201  2    28.438816059804118       132.7203128151822        5.0                      # Si
202  202  2    28.438816059804118       132.7203128151822        11.081138669036534       # Si
203  203  2    37.9180565462328         132.7203128151822        5.0                      # Si
204  204  2    37.9180565462328         132.7203128151822        11.081138669036534       # Si
205  205  2    47.397844332920506       132.7203128151822        5.0                      # Si
206  206  2    47.397844332920506       132.7203128151822        11.081138669036534       # Si
207  207  2    56.8770848193492         132.7203128151822        5.0                      # Si
208  208  2    56.8770848193492         132.7203128151822        11.081138669036534       # Si
209  209  2    66.3568726060369         132.7203128151822        5.0                      # Si
210  210  2    66.3568726060369         132.7203128151822        11.081138669036534       # Si
211  211  2    75.8361130924656         132.7203128151822        5.0                      # Si
212  212  2    75.8361130924656         132.7203128151822        11.081138669036534       # Si
213  213  2    85.31590087915332        132.7203128151822        5.0                      # Si
214  214  2    85.31590087915332        132.7203128151822        11.081138669036534       # Si
215  215  2    161.1520139716189        138.193315405499         5.0                      # Si
216  216  2    161.1520139716189        138.193315405499         11.081138669036534       # Si
217  217  2    170.6312544580476        138.193315405499         5.0                      # Si
218  218  2    170.6312544580476        138.193315405499         11.081138669036534       # Si
219  219  2    180.1110422447353        138.193315405499         5.0                      # Si
220  220  2    180.1110422447353        138.193315405499         11.081138669036534       # Si
221  221  2    189.59028273116397       138.193315405499         5.0                      # Si
222  222  2    189.59028273116397       138.193315405499         11.081138669036534       # Si
223  223  2    199.07007051785172       138.193315405499         5.0                      # Si
224  224  2    199.07007051785172       138.193315405499         11.081138669036534       # Si
225  225  2    208.54931100428038       138.193315405499         5.0                      # Si
226  226  2    208.54931100428038       138.193315405499         11.081138669036534       # Si
227  227  2    218.02909879096813       138.193315405499         5.0                      # Si
228  228  2    218.02909879096813       138.193315405499         11.081138669036534       # Si
229  229  2    227.5083392773968        138.193315405499         5.0                      # Si
230  230  2    227.5083392773968        138.193315405499         11.081138669036534       # Si
231  231  2    236.98812706408447       138.193315405499         5.0                      # Si
232  232  2    236.98812706408447       138.193315405499         11.081138669036534       # Si
233  233  2    246.4673675505132        138.193315405499         5.0                      # Si
234  234  2    246.4673675505132        138.193315405499         11.081138669036534       # Si
235  235  2    9.479787786687716        138.193315405499         5.0                      # Si
236  236  2    9.479787786687716        138.193315405499         11.081138669036534       # Si
237  237  2    18.9590282731164         138.193315405499         5.0                      # Si
238  238  2    18.9590282731164         138.193315405499         11.081138669036534       # Si
239  239  2    28.438816059804118       138.193315405499         5.0                      # Si
240  240  2    28.438816059804118       138.193315405499         11.081138669036534       # Si
241  241  2    37.9180565462328         138.193315405499         5.0                      # Si
242  242  2    37.9180565462328         138.193315405499         11.081138669036534       # Si
243  243  2    47.397844332920506       138.193315405499         5.0                      # Si
244  244  2    47.397844332920506       138.193315405499         11.081138669036534       # Si
245  245  2    56.8770848193492         138.193315405499         5.0                      # Si
246  246  2    56.8770848193492         138.193315405499         11.081138669036534       # Si
247  247  2    66.3568726060369         138.193315405499         5.0                      # Si
248  248  2    66.3568726060369         138.193315405499         11.081138669036534       # Si
249  249  2    75.8361130924656         138.193315405499         5.0                      # Si
250  250  2    75.8361130924656         138.193315405499         11.081138669036534       # Si
251  251  2    85.31590087915332        138.193315405499         5.0                      # Si
252  252  2    85.31590087915332        138.193315405499         11.081138669036534       # Si
253  253  2    94.79514136558198        138.193315405499         5.0                      # Si
254  254  2    94.79514136558198        138.193315405499         11.081138669036534       # Si
255  255  2    165.89163421483326       140.9298167006574        5.0                      # Si
256  256  2    165.89163421483326       140.9298167006574        11.081138669036534       # Si
257  257  2    175.37087470126195       140.9298167006574        5.0                      # Si
258  258  2    175.37087470126195       140.9298167006574        11.081138669036534       # Si
259  259  2    184.85066248794965       140.9298167006574        5.0                      # Si
260  260  2    184.85066248794965       140.9298167006574        11.081138669036534       # Si
261  261  2    194.32990297437834       140.9298167006574        5.0                      # Si
262  262  2    194.32990297437834       140.9298167006574        11.081138669036534       # Si
263  263  2    203.80969076106604       140.9298167006574        5.0                      # Si
264  264  2    203.80969076106604       140.9298167006574        11.081138669036534       # Si
265  265  2    213.28893124749476       140.9298167006574        5.0                      # Si
266  266  2    213.28893124749476       140.9298167006574        11.081138669036534       # Si
267  267  2    222.76871903418245       140.9298167006574        5.0                      # Si
268  268  2    222.76871903418245       140.9298167006574        11.081138669036534       # Si
269  269  2    232.24795952061112       140.9298167006574        5.0                      # Si
270  270  2    232.24795952061112       140.9298167006574        11.081138669036534       # Si
271  271  2    241.72774730729884       140.9298167006574        5.0                      # Si
272  272  2    241.72774730729884       140.9298167006574        11.081138669036534       # Si
273  273  2    4.739620243214342        140.9298167006574        5.0                      # Si
274  274  2    4.739620243214342        140.9298167006574        11.081138669036534       # Si
275  275  2    14.219408029902059       140.9298167006574        5.0                      # Si
276  276  2    14.219408029902059       140.9298167006574        11.081138669036534       # Si
277  277  2    23.69864851633074        140.9298167006574        5.0                      # Si
278  278  2    23.69864851633074        140.9298167006574        11.081138669036534       # Si
279  279  2    33.17843630301845        140.9298167006574        5.0                      # Si
280  280  2    33.17843630301845        140.9298167006574        11.081138669036534       # Si
281  281  2    42.657676789447144       140.9298167006574        5.0                      # Si
282  282  2    42.657676789447144       140.9298167006574        11.081138669036534       # Si
283  283  2    52.13746457613485        140.9298167006574        5.0                      # Si
284  284  2    52.13746457613485        140.9298167006574        11.081138669036534       # Si
285  285  2    61.61670506256354        140.9298167006574        5.0                      # Si
286  286  2    61.61670506256354        140.9298167006574        11.081138669036534       # Si
287  287  2    71.09649284925125        140.9298167006574        5.0                      # Si
288  288  2    71.09649284925125        140.9298167006574        11.081138669036534       # Si
289  289  2    80.57573333567994        140.9298167006574        5.0                      # Si
290  290  2    80.57573333567994        140.9298167006574        11.081138669036534       # Si
291  291  2    90.05552112236765        140.9298167006574        5.0                      # Si
292  292  2    90.05552112236765        140.9298167006574        11.081138669036534       # Si
293  293  2    156.41184642814554       146.40281929097418       5.0                      # Si
294  294  2    156.41184642814554       146.40281929097418       11.081138669036534       # Si
295  295  2    165.89163421483326       146.40281929097418       5.0                      # Si
296  296  2    165.89163421483326       146.40281929097418       11.081138669036534       # Si
297  297  2    175.37087470126195       146.40281929097418       5.0                      # Si
298  298  2    175.37087470126195       146.40281929097418       11.081138669036534       # Si
299  299  2    184.85066248794965       146.40281929097418       5.0                      # Si
300  300  2    184.85066248794965       146.40281929097418       11.081138669036534       # Si
301  301  2    194.32990297437834       146.40281929097418       5.0                      # Si
302  302  2    194.32990297437834       146.40281929097418       11.081138669036534       # Si
303  303  2    203.80969076106604       146.40281929097418       5.0                      # Si
304  304  2    203.80969076106604       146.40281929097418       11.081138669036534       # Si
305  305  2    213.28893124749476       146.40281929097418       5.0                      # Si
306  306  2    213.28893124749476       146.40281929097418       11.081138669036534       # Si
307  307  2    222.76871903418245       146.40281929097418       5.0                      # Si
308  308  2    222.76871903418245       146.40281929097418       11.081138669036534       # Si
309  309  2    232.24795952061112       146.40281929097418       5.0                      # Si
310  310  2    232.24795952061112       146.40281929097418       11.081138669036534       # Si
311  311  2    241.72774730729884       146.40281929097418       5.0                      # Si