LAMMPS (23 Jun 2022 - Update 2)
OMP_NUM_THREADS environment is not set. Defaulting to 1 thread. (src/comm.cpp:98)
  using 1 OpenMP thread(s) per MPI task
Reading data file ...
  orthogonal box = (0 0 -0.5) to (27.495454 23.811762 0.5)
  1 by 1 by 1 MPI processor grid
  reading atoms ...
  504 atoms
  scanning bonds ...
  3 = max bonds/atom
  scanning angles ...
  3 = max angles/atom
  reading bonds ...
  756 bonds
  reading angles ...
  1512 angles
Finding 1-2 1-3 1-4 neighbors ...
  special bond factors lj:    0        0        0       
  special bond factors coul:  0        0        0       
     3 = max # of 1-2 neighbors
     6 = max # of 1-3 neighbors
    18 = max # of 1-4 neighbors
    19 = max # of special neighbors
  special bonds CPU = 0.000 seconds
  read_data CPU = 0.008 seconds
Changing box ...
  orthogonal box = (-0.0014815883 0 -0.5) to (27.496936 23.811762 0.5)
  orthogonal box = (-0.0014815883 -0.056647042 -0.5) to (27.496936 23.868409 0.5)
WARNING: Using 'neigh_modify every 1 delay 0 check yes' setting during minimization (src/min.cpp:187)
Setting up sd style minimization ...
  Unit style    : electron
  Current step  : 0
WARNING: No pairwise cutoff or binsize set. Atom sorting therefore disabled. (src/atom.cpp:2142)
WARNING: Inconsistent image flags (src/domain.cpp:819)
Per MPI rank memory allocation (min/avg/max) = 9.789 | 9.789 | 9.789 Mbytes
---
keywords: ['Step', 'PotEng', 'KinEng', 'E_pair', 'E_bond', 'TotEng', 'Volume', 'Temp', ]
data:
  - [0, 2.86487081911114, 0, 0, 2.09899281170254, 2.86487081911114, 657.901173592694, 0, ]
  - [281, 1.04386849205583, 0, 0, 0.35736010703419, 1.04386849205583, 657.901173592694, 0, ]
...
Loop time of 0.0554593 on 1 procs for 281 steps with 504 atoms

99.8% CPU use with 1 MPI tasks x 1 OpenMP threads

Minimization stats:
  Stopping criterion = energy tolerance
  Energy initial, next-to-last, final = 
      2.86487081911114   1.04386953219546   1.04386849205583
  Force two-norm initial, final = 3.8577549 0.0036615916
  Force max component initial, final = 1.3611873 0.00038644035
  Final line search alpha, max atom move = 1 0.00038644035
  Iterations, force evaluations = 281 558

MPI task timing breakdown:
Section |  min time  |  avg time  |  max time  |%varavg| %total
---------------------------------------------------------------
Pair    | 0          | 0          | 0          |   0.0 |  0.00
Bond    | 0.049246   | 0.049246   | 0.049246   |   0.0 | 88.80
Neigh   | 0          | 0          | 0          |   0.0 |  0.00
Comm    | 0.0012676  | 0.0012676  | 0.0012676  |   0.0 |  2.29
Output  | 0          | 0          | 0          |   0.0 |  0.00
Modify  | 0          | 0          | 0          |   0.0 |  0.00
Other   |            | 0.004946   |            |       |  8.92

Nlocal:            504 ave         504 max         504 min
Histogram: 1 0 0 0 0 0 0 0 0 0
Nghost:            349 ave         349 max         349 min
Histogram: 1 0 0 0 0 0 0 0 0 0
Neighs:              0 ave           0 max           0 min
Histogram: 1 0 0 0 0 0 0 0 0 0

Total # of neighbors = 0
Ave neighs/atom = 0
Ave special neighs/atom = 17.972222
Neighbor list builds = 0
Dangerous builds = 0
Total wall time: 0:00:00
