DATA FILE Produced from netmc results (cf David Morley)
1260 atoms
3024 bonds
0 angles
0 dihedrals
0 impropers
2 atom types
2 bond types
0 angle types
0 dihedral types
0 improper types
0.00000 158.68975791114707 xlo xhi
0.00000 138.26684793553235 ylo yhi

# Pair Coeffs
#
# 1  O
# 2  Si

# Bond Coeffs
# 
# 1  O-O
# 2  Si-O
# 3  O-O rep
# 4  Si-Si rep

 Masses

1 28.10000 # O 
2 32.01000 # Si

 Atoms # molecular

1    1    2    84.30375118268543        76.3348222702695         5.0                      # Si
2    2    2    94.22214270307468        76.3348222702695         5.0                      # Si
3    3    2    104.13996163354773       76.3348222702695         5.0                      # Si
4    4    2    114.05835315393699       76.3348222702695         5.0                      # Si
5    5    2    123.9761720270765        76.3348222702695         5.0                      # Si
6    6    2    133.89456354746576       76.3348222702695         5.0                      # Si
7    7    2    143.8123824779388        76.3348222702695         5.0                      # Si
8    8    2    153.73077399832803       76.3348222702695         5.0                      # Si
9    9    2    4.958909436569762        76.3348222702695         5.0                      # Si
10   10   2    14.877300956959012       76.3348222702695         5.0                      # Si
11   11   2    24.79511988743206        76.3348222702695         5.0                      # Si
12   12   2    34.71351140782131        76.3348222702695         5.0                      # Si
13   13   2    44.631330338294354       76.3348222702695         5.0                      # Si
14   14   2    54.54972185868361        76.3348222702695         5.0                      # Si
15   15   2    64.46754073182314        76.3348222702695         5.0                      # Si
16   16   2    74.38593225221238        76.3348222702695         5.0                      # Si
17   17   2    79.34484174611568        79.21538161420425        5.0                      # Si
18   18   2    89.26323326650493        79.21538161420425        5.0                      # Si
19   19   2    99.18105213964445        79.21538161420425        5.0                      # Si
20   20   2    109.09944371736722       79.21538161420425        5.0                      # Si
21   21   2    119.01726259050673       79.21538161420425        5.0                      # Si
22   22   2    128.935654110896         79.21538161420425        5.0                      # Si
23   23   2    138.85347304136903       79.21538161420425        5.0                      # Si
24   24   2    148.7718645617583        79.21538161420425        5.0                      # Si
25   25   2    158.6896834348978        79.21538161420425        5.0                      # Si
26   26   2    9.91839152038925         79.21538161420425        5.0                      # Si
27   27   2    19.836210450862296       79.21538161420425        5.0                      # Si
28   28   2    29.754601971251546       79.21538161420425        5.0                      # Si
29   29   2    39.67242084439107        79.21538161420425        5.0                      # Si
30   30   2    49.59081236478032        79.21538161420425        5.0                      # Si
31   31   2    59.508631295253366       79.21538161420425        5.0                      # Si
32   32   2    69.42702281564262        79.21538161420425        5.0                      # Si
33   33   2    89.26323326650493        84.97650030207373        5.0                      # Si
34   34   2    99.18105213964445        84.97650030207373        5.0                      # Si
35   35   2    109.09944371736722       84.97650030207373        5.0                      # Si
36   36   2    119.01726259050673       84.97650030207373        5.0                      # Si
37   37   2    128.935654110896         84.97650030207373        5.0                      # Si
38   38   2    138.85347304136903       84.97650030207373        5.0                      # Si
39   39   2    148.7718645617583        84.97650030207373        5.0                      # Si
40   40   2    158.6896834348978        84.97650030207373        5.0                      # Si
41   41   2    9.91839152038925         84.97650030207373        5.0                      # Si
42   42   2    19.836210450862296       84.97650030207373        5.0                      # Si
43   43   2    29.754601971251546       84.97650030207373        5.0                      # Si
44   44   2    39.67242084439107        84.97650030207373        5.0                      # Si
45   45   2    49.59081236478032        84.97650030207373        5.0                      # Si
46   46   2    59.508631295253366       84.97650030207373        5.0                      # Si
47   47   2    69.42702281564262        84.97650030207373        5.0                      # Si
48   48   2    79.34484174611568        84.97650030207373        5.0                      # Si
49   49   2    84.30375118268543        87.85705964600848        5.0                      # Si
50   50   2    94.22214270307468        87.85705964600848        5.0                      # Si
51   51   2    104.13996163354773       87.85705964600848        5.0                      # Si
52   52   2    114.05835315393699       87.85705964600848        5.0                      # Si
53   53   2    123.9761720270765        87.85705964600848        5.0                      # Si
54   54   2    133.89456354746576       87.85705964600848        5.0                      # Si
55   55   2    143.8123824779388        87.85705964600848        5.0                      # Si
56   56   2    153.73077399832803       87.85705964600848        5.0                      # Si
57   57   2    4.958909436569762        87.85705964600848        5.0                      # Si
58   58   2    14.877300956959012       87.85705964600848        5.0                      # Si
59   59   2    24.79511988743206        87.85705964600848        5.0                      # Si
60   60   2    34.71351140782131        87.85705964600848        5.0                      # Si
61   61   2    44.631330338294354       87.85705964600848        5.0                      # Si
62   62   2    54.54972185868361        87.85705964600848        5.0                      # Si
63   63   2    64.46754073182314        87.85705964600848        5.0                      # Si
64   64   2    74.38593225221238        87.85705964600848        5.0                      # Si
65   65   2    84.30375118268543        93.61817827654444        5.0                      # Si
66   66   2    94.22214270307468        93.61817827654444        5.0                      # Si
67   67   2    104.13996163354773       93.61817827654444        5.0                      # Si
68   68   2    114.05835315393699       93.61817827654444        5.0                      # Si
69   69   2    123.9761720270765        93.61817827654444        5.0                      # Si
70   70   2    133.89456354746576       93.61817827654444        5.0                      # Si
71   71   2    143.8123824779388        93.61817827654444        5.0                      # Si
72   72   2    153.73077399832803       93.61817827654444        5.0                      # Si
73   73   2    4.958909436569762        93.61817827654444        5.0                      # Si
74   74   2    14.877300956959012       93.61817827654444        5.0                      # Si
75   75   2    24.79511988743206        93.61817827654444        5.0                      # Si
76   76   2    34.71351140782131        93.61817827654444        5.0                      # Si
77   77   2    44.631330338294354       93.61817827654444        5.0                      # Si
78   78   2    54.54972185868361        93.61817827654444        5.0                      # Si
79   79   2    64.46754073182314        93.61817827654444        5.0                      # Si
80   80   2    74.38593225221238        93.61817827654444        5.0                      # Si
81   81   2    79.34484174611568        96.49873762047916        5.0                      # Si
82   82   2    89.26323326650493        96.49873762047916        5.0                      # Si
83   83   2    99.18105213964445        96.49873762047916        5.0                      # Si
84   84   2    109.09944371736722       96.49873762047916        5.0                      # Si
85   85   2    119.01726259050673       96.49873762047916        5.0                      # Si
86   86   2    128.935654110896         96.49873762047916        5.0                      # Si
87   87   2    138.85347304136903       96.49873762047916        5.0                      # Si
88   88   2    148.7718645617583        96.49873762047916        5.0                      # Si
89   89   2    158.6896834348978        96.49873762047916        5.0                      # Si
90   90   2    9.91839152038925         96.49873762047916        5.0                      # Si
91   91   2    19.836210450862296       96.49873762047916        5.0                      # Si
92   92   2    29.754601971251546       96.49873762047916        5.0                      # Si
93   93   2    39.67242084439107        96.49873762047916        5.0                      # Si
94   94   2    49.59081236478032        96.49873762047916        5.0                      # Si
95   95   2    59.508631295253366       96.49873762047916        5.0                      # Si
96   96   2    69.42702281564262        96.49873762047916        5.0                      # Si
97   97   2    89.26323326650493        102.25985630834866       5.0                      # Si
98   98   2    99.18105213964445        102.25985630834866       5.0                      # Si
99   99   2    109.09944371736722       102.25985630834866       5.0                      # Si
100  100  2    119.01726259050673       102.25985630834866       5.0                      # Si
101  101  2    128.935654110896         102.25985630834866       5.0                      # Si
102  102  2    138.85347304136903       102.25985630834866       5.0                      # Si
103  103  2    148.7718645617583        102.25985630834866       5.0                      # Si
104  104  2    158.6896834348978        102.25985630834866       5.0                      # Si
105  105  2    9.91839152038925         102.25985630834866       5.0                      # Si
106  106  2    19.836210450862296       102.25985630834866       5.0                      # Si
107  107  2    29.754601971251546       102.25985630834866       5.0                      # Si
108  108  2    39.67242084439107        102.25985630834866       5.0                      # Si
109  109  2    49.59081236478032        102.25985630834866       5.0                      # Si
110  110  2    59.508631295253366       102.25985630834866       5.0                      # Si
111  111  2    69.42702281564262        102.25985630834866       5.0                      # Si
112  112  2    79.34484174611568        102.25985630834866       5.0                      # Si
113  113  2    84.30375118268543        105.14041559494987       5.0                      # Si
114  114  2    94.22214270307468        105.14041559494987       5.0                      # Si
115  115  2    104.13996163354773       105.14041559494987       5.0                      # Si
116  116  2    114.05835315393699       105.14041559494987       5.0                      # Si
117  117  2    123.9761720270765        105.14041559494987       5.0                      # Si
118  118  2    133.89456354746576       105.14041559494987       5.0                      # Si
119  119  2    143.8123824779388        105.14041559494987       5.0                      # Si
120  120  2    153.73077399832803       105.14041559494987       5.0                      # Si
121  121  2    4.958909436569762        105.14041559494987       5.0                      # Si
122  122  2    14.877300956959012       105.14041559494987       5.0                      # Si
123  123  2    24.79511988743206        105.14041559494987       5.0                      # Si
124  124  2    34.71351140782131        105.14041559494987       5.0                      # Si
125  125  2    44.631330338294354       105.14041559494987       5.0                      # Si
126  126  2    54.54972185868361        105.14041559494987       5.0                      # Si
127  127  2    64.46754073182314        105.14041559494987       5.0                      # Si
128  128  2    74.38593225221238        105.14041559494987       5.0                      # Si
129  129  2    84.30375118268543        110.90153428281937       5.0                      # Si
130  130  2    94.22214270307468        110.90153428281937       5.0                      # Si
131  131  2    104.13996163354773       110.90153428281937       5.0                      # Si
132  132  2    114.05835315393699       110.90153428281937       5.0                      # Si
133  133  2    123.9761720270765        110.90153428281937       5.0                      # Si
134  134  2    133.89456354746576       110.90153428281937       5.0                      # Si
135  135  2    143.8123824779388        110.90153428281937       5.0                      # Si
136  136  2    153.73077399832803       110.90153428281937       5.0                      # Si
137  137  2    4.958909436569762        110.90153428281937       5.0                      # Si
138  138  2    14.877300956959012       110.90153428281937       5.0                      # Si
139  139  2    24.79511988743206        110.90153428281937       5.0                      # Si
140  140  2    34.71351140782131        110.90153428281937       5.0                      # Si
141  141  2    44.631330338294354       110.90153428281937       5.0                      # Si
142  142  2    54.54972185868361        110.90153428281937       5.0                      # Si
143  143  2    64.46754073182314        110.90153428281937       5.0                      # Si
144  144  2    74.38593225221238        110.90153428281937       5.0                      # Si
145  145  2    79.34484174611568        113.78209362675409       5.0                      # Si
146  146  2    89.26323326650493        113.78209362675409       5.0                      # Si
147  147  2    99.18105213964445        113.78209362675409       5.0                      # Si
148  148  2    109.09944371736722       113.78209362675409       5.0                      # Si
149  149  2    119.01726259050673       113.78209362675409       5.0                      # Si
150  150  2    128.935654110896         113.78209362675409       5.0                      # Si
151  151  2    138.85347304136903       113.78209362675409       5.0                      # Si
152  152  2    148.7718645617583        113.78209362675409       5.0                      # Si
153  153  2    158.6896834348978        113.78209362675409       5.0                      # Si
154  154  2    9.91839152038925         113.78209362675409       5.0                      # Si
155  155  2    19.836210450862296       113.78209362675409       5.0                      # Si
156  156  2    29.754601971251546       113.78209362675409       5.0                      # Si
157  157  2    39.67242084439107        113.78209362675409       5.0                      # Si
158  158  2    49.59081236478032        113.78209362675409       5.0                      # Si
159  159  2    59.508631295253366       113.78209362675409       5.0                      # Si
160  160  2    69.42702281564262        113.78209362675409       5.0                      # Si
161  161  2    89.26323326650493        119.54321225729005       5.0                      # Si
162  162  2    99.18105213964445        119.54321225729005       5.0                      # Si
163  163  2    109.09944371736722       119.54321225729005       5.0                      # Si
164  164  2    119.01726259050673       119.54321225729005       5.0                      # Si
165  165  2    128.935654110896         119.54321225729005       5.0                      # Si
166  166  2    138.85347304136903       119.54321225729005       5.0                      # Si
167  167  2    148.7718645617583        119.54321225729005       5.0                      # Si
168  168  2    158.6896834348978        119.54321225729005       5.0                      # Si
169  169  2    9.91839152038925         119.54321225729005       5.0                      # Si
170  170  2    19.836210450862296       119.54321225729005       5.0                      # Si
171  171  2    29.754601971251546       119.54321225729005       5.0                      # Si
172  172  2    39.67242084439107        119.54321225729005       5.0                      # Si
173  173  2    49.59081236478032        119.54321225729005       5.0                      # Si
174  174  2    59.508631295253366       119.54321225729005       5.0                      # Si
175  175  2    69.42702281564262        119.54321225729005       5.0                      # Si
176  176  2    79.34484174611568        119.54321225729005       5.0                      # Si
177  177  2    84.30375118268543        122.4237716012248        5.0                      # Si
178  178  2    94.22214270307468        122.4237716012248        5.0                      # Si
179  179  2    104.13996163354773       122.4237716012248        5.0                      # Si
180  180  2    114.05835315393699       122.4237716012248        5.0                      # Si
181  181  2    123.9761720270765        122.4237716012248        5.0                      # Si
182  182  2    133.89456354746576       122.4237716012248        5.0                      # Si
183  183  2    143.8123824779388        122.4237716012248        5.0                      # Si
184  184  2    153.73077399832803       122.4237716012248        5.0                      # Si
185  185  2    4.958909436569762        122.4237716012248        5.0                      # Si
186  186  2    14.877300956959012       122.4237716012248        5.0                      # Si
187  187  2    24.79511988743206        122.4237716012248        5.0                      # Si
188  188  2    34.71351140782131        122.4237716012248        5.0                      # Si
189  189  2    44.631330338294354       122.4237716012248        5.0                      # Si
190  190  2    54.54972185868361        122.4237716012248        5.0                      # Si
191  191  2    64.46754073182314        122.4237716012248        5.0                      # Si
192  192  2    74.38593225221238        122.4237716012248        5.0                      # Si
193  193  2    84.30375118268543        128.18489028909428       5.0                      # Si
194  194  2    94.22214270307468        128.18489028909428       5.0                      # Si
195  195  2    104.13996163354773       128.18489028909428       5.0                      # Si
196  196  2    114.05835315393699       128.18489028909428       5.0                      # Si
197  197  2    123.9761720270765        128.18489028909428       5.0                      # Si
198  198  2    133.89456354746576       128.18489028909428       5.0                      # Si
199  199  2    143.8123824779388        128.18489028909428       5.0                      # Si
200  200  2    153.73077399832803       128.18489028909428       5.0                      # Si
201  201  2    4.958909436569762        128.18489028909428       5.0                      # Si
202  202  2    14.877300956959012       128.18489028909428       5.0                      # Si
203  203  2    24.79511988743206        128.18489028909428       5.0                      # Si
204  204  2    34.71351140782131        128.18489028909428       5.0                      # Si
205  205  2    44.631330338294354       128.18489028909428       5.0                      # Si
206  206  2    54.54972185868361        128.18489028909428       5.0                      # Si
207  207  2    64.46754073182314        128.18489028909428       5.0                      # Si
208  208  2    74.38593225221238        128.18489028909428       5.0                      # Si
209  209  2    79.34484174611568        131.0654495756955        5.0                      # Si
210  210  2    89.26323326650493        131.0654495756955        5.0                      # Si
211  211  2    99.18105213964445        131.0654495756955        5.0                      # Si
212  212  2    109.09944371736722       131.0654495756955        5.0                      # Si
213  213  2    119.01726259050673       131.0654495756955        5.0                      # Si
214  214  2    128.935654110896         131.0654495756955        5.0                      # Si
215  215  2    138.85347304136903       131.0654495756955        5.0                      # Si
216  216  2    148.7718645617583        131.0654495756955        5.0                      # Si
217  217  2    158.6896834348978        131.0654495756955        5.0                      # Si
218  218  2    9.91839152038925         131.0654495756955        5.0                      # Si
219  219  2    19.836210450862296       131.0654495756955        5.0                      # Si
220  220  2    29.754601971251546       131.0654495756955        5.0                      # Si
221  221  2    39.67242084439107        131.0654495756955        5.0                      # Si
222  222  2    49.59081236478032        131.0654495756955        5.0                      # Si
223  223  2    59.508631295253366       131.0654495756955        5.0                      # Si
224  224  2    69.42702281564262        131.0654495756955        5.0                      # Si
225  225  2    89.26323326650493        136.82656826356498       5.0                      # Si
226  226  2    99.18105213964445        136.82656826356498       5.0                      # Si
227  227  2    109.09944371736722       136.82656826356498       5.0                      # Si
228  228  2    119.01726259050673       136.82656826356498       5.0                      # Si
229  229  2    128.935654110896         136.82656826356498       5.0                      # Si
230  230  2    138.85347304136903       136.82656826356498       5.0                      # Si
231  231  2    148.7718645617583        136.82656826356498       5.0                      # Si
232  232  2    158.6896834348978        136.82656826356498       5.0                      # Si
233  233  2    9.91839152038925         136.82656826356498       5.0                      # Si
234  234  2    19.836210450862296       136.82656826356498       5.0                      # Si
235  235  2    29.754601971251546       136.82656826356498       5.0                      # Si
236  236  2    39.67242084439107        136.82656826356498       5.0                      # Si
237  237  2    49.59081236478032        136.82656826356498       5.0                      # Si
238  238  2    59.508631295253366       136.82656826356498       5.0                      # Si
239  239  2    69.42702281564262        136.82656826356498       5.0                      # Si
240  240  2    79.34484174611568        136.82656826356498       5.0                      # Si
241  241  2    84.30375118268543        1.440279671967371        5.0                      # Si
242  242  2    94.22214270307468        1.440279671967371        5.0                      # Si
243  243  2    104.13996163354773       1.440279671967371        5.0                      # Si
244  244  2    114.05835315393699       1.440279671967371        5.0                      # Si
245  245  2    123.9761720270765        1.440279671967371        5.0                      # Si
246  246  2    133.89456354746576       1.440279671967371        5.0                      # Si
247  247  2    143.8123824779388        1.440279671967371        5.0                      # Si
248  248  2    153.73077399832803       1.440279671967371        5.0                      # Si
249  249  2    4.958909436569762        1.440279671967371        5.0                      # Si
250  250  2    14.877300956959012       1.440279671967371        5.0                      # Si
251  251  2    24.79511988743206        1.440279671967371        5.0                      # Si
252  252  2    34.71351140782131        1.440279671967371        5.0                      # Si
253  253  2    44.631330338294354       1.440279671967371        5.0                      # Si
254  254  2    54.54972185868361        1.440279671967371        5.0                      # Si
255  255  2    64.46754073182314        1.440279671967371        5.0                      # Si
256  256  2    74.38593225221238        1.440279671967371        5.0                      # Si
257  257  2    84.30375118268543        7.201398302503329        5.0                      # Si
258  258  2    94.22214270307468        7.201398302503329        5.0                      # Si
259  259  2    104.13996163354773       7.201398302503329        5.0                      # Si
260  260  2    114.05835315393699       7.201398302503329        5.0                      # Si
261  261  2    123.9761720270765        7.201398302503329        5.0                      # Si
262  262  2    133.89456354746576       7.201398302503329        5.0                      # Si
263  263  2    143.8123824779388        7.201398302503329        5.0                      # Si
264  264  2    153.73077399832803       7.201398302503329        5.0                      # Si
265  265  2    4.958909436569762        7.201398302503329        5.0                      # Si
266  266  2    14.877300956959012       7.201398302503329        5.0                      # Si
267  267  2    24.79511988743206        7.201398302503329        5.0                      # Si
268  268  2    34.71351140782131        7.201398302503329        5.0                      # Si
269  269  2    44.631330338294354       7.201398302503329        5.0                      # Si
270  270  2    54.54972185868361        7.201398302503329        5.0                      # Si
271  271  2    64.46754073182314        7.201398302503329        5.0                      # Si
272  272  2    74.38593225221238        7.201398302503329        5.0                      # Si
273  273  2    79.34484174611568        10.081957646438072       5.0                      # Si
274  274  2    89.26323326650493        10.081957646438072       5.0                      # Si
275  275  2    99.18105213964445        10.081957646438072       5.0                      # Si
276  276  2    109.09944371736722       10.081957646438072       5.0                      # Si
277  277  2    119.01726259050673       10.081957646438072       5.0                      # Si
278  278  2    128.935654110896         10.081957646438072       5.0                      # Si
279  279  2    138.85347304136903       10.081957646438072       5.0                      # Si
280  280  2    148.7718645617583        10.081957646438072       5.0                      # Si
281  281  2    158.6896834348978        10.081957646438072       5.0                      # Si
282  282  2    9.91839152038925         10.081957646438072       5.0                      # Si
283  283  2    19.836210450862296       10.081957646438072       5.0                      # Si
284  284  2    29.754601971251546       10.081957646438072       5.0                      # Si
285  285  2    39.67242084439107        10.081957646438072       5.0                      # Si
286  286  2    49.59081236478032        10.081957646438072       5.0                      # Si
287  287  2    59.508631295253366       10.081957646438072       5.0                      # Si
288  288  2    69.42702281564262        10.081957646438072       5.0                      # Si
289  289  2    89.26323326650493        15.843076334307554       5.0                      # Si
290  290  2    99.18105213964445        15.843076334307554       5.0                      # Si
291  291  2    109.09944371736722       15.843076334307554       5.0                      # Si
292  292  2    119.01726259050673       15.843076334307554       5.0                      # Si
293  293  2    128.935654110896         15.843076334307554       5.0                      # Si
294  294  2    138.85347304136903       15.843076334307554       5.0                      # Si
295  295  2    148.7718645617583        15.843076334307554       5.0                      # Si
296  296  2    158.6896834348978        15.843076334307554       5.0                      # Si
297  297  2    9.91839152038925         15.843076334307554       5.0                      # Si
298  298  2    19.836210450862296       15.843076334307554       5.0                      # Si
299  299  2    29.754601971251546       15.843076334307554       5.0                      # Si
300  300  2    39.67242084439107        15.843076334307554       5.0                      # Si
301  301  2    49.59081236478032        15.843076334307554       5.0                      # Si
302  302  2    59.508631295253366       15.843076334307554       5.0                      # Si
303  303  2    69.42702281564262        15.843076334307554       5.0                      # Si
304  304  2    79.34484174611568        15.843076334307554       5.0                      # Si
305  305  2    84.30375118268543        18.723635678242296       5.0                      # Si
306  306  2    94.22214270307468        18.723635678242296       5.0                      # Si
307  307  2    104.13996163354773       18.723635678242296       5.0                      # Si
308  308  2    114.05835315393699       18.723635678242296       5.0                      # Si
309  309  2    123.9761720270765        18.723635678242296       5.0                      # Si
310  310  2    133.89456354746576       18.723635678242296       5.0                      # Si
311  311  2    143.8123824779388        18.723635678242296       5.0                      # Si