DATA FILE Produced from netmc results (cf David Morley)
3024 atoms
10080 bonds
0 angles
0 dihedrals
0 impropers
2 atom types
0 bond types
2 bond types
0 angle types
0 dihedral types
0 improper types
0.00000 158.68975791114707 xlo xhi
0.00000 138.26684793553235 ylo yhi
0.0000 200.0000 zlo zhi

# Pair Coeffs
#
# 1  O
# 2  Si

# Bond Coeffs
# 
# 1  O-O
# 2  Si-O
# 3  O-O rep
# 4  Si-Si rep

 Masses

1 28.10000 # O 
2 32.01000 # Si

 Atoms # molecular

1    1    1    84.30375118268543        76.3348222702695         8.040569334518267        # O
2    2    1    94.22214270307468        76.3348222702695         8.040569334518267        # O
3    3    1    104.13996163354773       76.3348222702695         8.040569334518267        # O
4    4    1    114.05835315393699       76.3348222702695         8.040569334518267        # O
5    5    1    123.9761720270765        76.3348222702695         8.040569334518267        # O
6    6    1    133.89456354746576       76.3348222702695         8.040569334518267        # O
7    7    1    143.8123824779388        76.3348222702695         8.040569334518267        # O
8    8    1    153.73077399832803       76.3348222702695         8.040569334518267        # O
9    9    1    4.958909436569762        76.3348222702695         8.040569334518267        # O
10   10   1    14.877300956959012       76.3348222702695         8.040569334518267        # O
11   11   1    24.79511988743206        76.3348222702695         8.040569334518267        # O
12   12   1    34.71351140782131        76.3348222702695         8.040569334518267        # O
13   13   1    44.631330338294354       76.3348222702695         8.040569334518267        # O
14   14   1    54.54972185868361        76.3348222702695         8.040569334518267        # O
15   15   1    64.46754073182314        76.3348222702695         8.040569334518267        # O
16   16   1    74.38593225221238        76.3348222702695         8.040569334518267        # O
17   17   1    79.34484174611568        79.21538161420425        8.040569334518267        # O
18   18   1    89.26323326650493        79.21538161420425        8.040569334518267        # O
19   19   1    99.18105213964445        79.21538161420425        8.040569334518267        # O
20   20   1    109.09944371736722       79.21538161420425        8.040569334518267        # O
21   21   1    119.01726259050673       79.21538161420425        8.040569334518267        # O
22   22   1    128.935654110896         79.21538161420425        8.040569334518267        # O
23   23   1    138.85347304136903       79.21538161420425        8.040569334518267        # O
24   24   1    148.7718645617583        79.21538161420425        8.040569334518267        # O
25   25   1    158.6896834348978        79.21538161420425        8.040569334518267        # O
26   26   1    9.91839152038925         79.21538161420425        8.040569334518267        # O
27   27   1    19.836210450862296       79.21538161420425        8.040569334518267        # O
28   28   1    29.754601971251546       79.21538161420425        8.040569334518267        # O
29   29   1    39.67242084439107        79.21538161420425        8.040569334518267        # O
30   30   1    49.59081236478032        79.21538161420425        8.040569334518267        # O
31   31   1    59.508631295253366       79.21538161420425        8.040569334518267        # O
32   32   1    69.42702281564262        79.21538161420425        8.040569334518267        # O
33   33   1    89.26323326650493        84.97650030207373        8.040569334518267        # O
34   34   1    99.18105213964445        84.97650030207373        8.040569334518267        # O
35   35   1    109.09944371736722       84.97650030207373        8.040569334518267        # O
36   36   1    119.01726259050673       84.97650030207373        8.040569334518267        # O
37   37   1    128.935654110896         84.97650030207373        8.040569334518267        # O
38   38   1    138.85347304136903       84.97650030207373        8.040569334518267        # O
39   39   1    148.7718645617583        84.97650030207373        8.040569334518267        # O
40   40   1    158.6896834348978        84.97650030207373        8.040569334518267        # O
41   41   1    9.91839152038925         84.97650030207373        8.040569334518267        # O
42   42   1    19.836210450862296       84.97650030207373        8.040569334518267        # O
43   43   1    29.754601971251546       84.97650030207373        8.040569334518267        # O
44   44   1    39.67242084439107        84.97650030207373        8.040569334518267        # O
45   45   1    49.59081236478032        84.97650030207373        8.040569334518267        # O
46   46   1    59.508631295253366       84.97650030207373        8.040569334518267        # O
47   47   1    69.42702281564262        84.97650030207373        8.040569334518267        # O
48   48   1    79.34484174611568        84.97650030207373        8.040569334518267        # O
49   49   1    84.30375118268543        87.85705964600848        8.040569334518267        # O
50   50   1    94.22214270307468        87.85705964600848        8.040569334518267        # O
51   51   1    104.13996163354773       87.85705964600848        8.040569334518267        # O
52   52   1    114.05835315393699       87.85705964600848        8.040569334518267        # O
53   53   1    123.9761720270765        87.85705964600848        8.040569334518267        # O
54   54   1    133.89456354746576       87.85705964600848        8.040569334518267        # O
55   55   1    143.8123824779388        87.85705964600848        8.040569334518267        # O
56   56   1    153.73077399832803       87.85705964600848        8.040569334518267        # O
57   57   1    4.958909436569762        87.85705964600848        8.040569334518267        # O
58   58   1    14.877300956959012       87.85705964600848        8.040569334518267        # O
59   59   1    24.79511988743206        87.85705964600848        8.040569334518267        # O
60   60   1    34.71351140782131        87.85705964600848        8.040569334518267        # O
61   61   1    44.631330338294354       87.85705964600848        8.040569334518267        # O
62   62   1    54.54972185868361        87.85705964600848        8.040569334518267        # O
63   63   1    64.46754073182314        87.85705964600848        8.040569334518267        # O
64   64   1    74.38593225221238        87.85705964600848        8.040569334518267        # O
65   65   1    84.30375118268543        93.61817827654444        8.040569334518267        # O
66   66   1    94.22214270307468        93.61817827654444        8.040569334518267        # O
67   67   1    104.13996163354773       93.61817827654444        8.040569334518267        # O
68   68   1    114.05835315393699       93.61817827654444        8.040569334518267        # O
69   69   1    123.9761720270765        93.61817827654444        8.040569334518267        # O
70   70   1    133.89456354746576       93.61817827654444        8.040569334518267        # O
71   71   1    143.8123824779388        93.61817827654444        8.040569334518267        # O
72   72   1    153.73077399832803       93.61817827654444        8.040569334518267        # O
73   73   1    4.958909436569762        93.61817827654444        8.040569334518267        # O
74   74   1    14.877300956959012       93.61817827654444        8.040569334518267        # O
75   75   1    24.79511988743206        93.61817827654444        8.040569334518267        # O
76   76   1    34.71351140782131        93.61817827654444        8.040569334518267        # O
77   77   1    44.631330338294354       93.61817827654444        8.040569334518267        # O
78   78   1    54.54972185868361        93.61817827654444        8.040569334518267        # O
79   79   1    64.46754073182314        93.61817827654444        8.040569334518267        # O
80   80   1    74.38593225221238        93.61817827654444        8.040569334518267        # O
81   81   1    79.34484174611568        96.49873762047916        8.040569334518267        # O
82   82   1    89.26323326650493        96.49873762047916        8.040569334518267        # O
83   83   1    99.18105213964445        96.49873762047916        8.040569334518267        # O
84   84   1    109.09944371736722       96.49873762047916        8.040569334518267        # O
85   85   1    119.01726259050673       96.49873762047916        8.040569334518267        # O
86   86   1    128.935654110896         96.49873762047916        8.040569334518267        # O
87   87   1    138.85347304136903       96.49873762047916        8.040569334518267        # O
88   88   1    148.7718645617583        96.49873762047916        8.040569334518267        # O
89   89   1    158.6896834348978        96.49873762047916        8.040569334518267        # O
90   90   1    9.91839152038925         96.49873762047916        8.040569334518267        # O
91   91   1    19.836210450862296       96.49873762047916        8.040569334518267        # O
92   92   1    29.754601971251546       96.49873762047916        8.040569334518267        # O
93   93   1    39.67242084439107        96.49873762047916        8.040569334518267        # O
94   94   1    49.59081236478032        96.49873762047916        8.040569334518267        # O
95   95   1    59.508631295253366       96.49873762047916        8.040569334518267        # O
96   96   1    69.42702281564262        96.49873762047916        8.040569334518267        # O
97   97   1    89.26323326650493        102.25985630834866       8.040569334518267        # O
98   98   1    99.18105213964445        102.25985630834866       8.040569334518267        # O
99   99   1    109.09944371736722       102.25985630834866       8.040569334518267        # O
100  100  1    119.01726259050673       102.25985630834866       8.040569334518267        # O
101  101  1    128.935654110896         102.25985630834866       8.040569334518267        # O
102  102  1    138.85347304136903       102.25985630834866       8.040569334518267        # O
103  103  1    148.7718645617583        102.25985630834866       8.040569334518267        # O
104  104  1    158.6896834348978        102.25985630834866       8.040569334518267        # O
105  105  1    9.91839152038925         102.25985630834866       8.040569334518267        # O
106  106  1    19.836210450862296       102.25985630834866       8.040569334518267        # O
107  107  1    29.754601971251546       102.25985630834866       8.040569334518267        # O
108  108  1    39.67242084439107        102.25985630834866       8.040569334518267        # O
109  109  1    49.59081236478032        102.25985630834866       8.040569334518267        # O
110  110  1    59.508631295253366       102.25985630834866       8.040569334518267        # O
111  111  1    69.42702281564262        102.25985630834866       8.040569334518267        # O
112  112  1    79.34484174611568        102.25985630834866       8.040569334518267        # O
113  113  1    84.30375118268543        105.14041559494987       8.040569334518267        # O
114  114  1    94.22214270307468        105.14041559494987       8.040569334518267        # O
115  115  1    104.13996163354773       105.14041559494987       8.040569334518267        # O
116  116  1    114.05835315393699       105.14041559494987       8.040569334518267        # O
117  117  1    123.9761720270765        105.14041559494987       8.040569334518267        # O
118  118  1    133.89456354746576       105.14041559494987       8.040569334518267        # O
119  119  1    143.8123824779388        105.14041559494987       8.040569334518267        # O
120  120  1    153.73077399832803       105.14041559494987       8.040569334518267        # O
121  121  1    4.958909436569762        105.14041559494987       8.040569334518267        # O
122  122  1    14.877300956959012       105.14041559494987       8.040569334518267        # O
123  123  1    24.79511988743206        105.14041559494987       8.040569334518267        # O
124  124  1    34.71351140782131        105.14041559494987       8.040569334518267        # O
125  125  1    44.631330338294354       105.14041559494987       8.040569334518267        # O
126  126  1    54.54972185868361        105.14041559494987       8.040569334518267        # O
127  127  1    64.46754073182314        105.14041559494987       8.040569334518267        # O
128  128  1    74.38593225221238        105.14041559494987       8.040569334518267        # O
129  129  1    84.30375118268543        110.90153428281937       8.040569334518267        # O
130  130  1    94.22214270307468        110.90153428281937       8.040569334518267        # O
131  131  1    104.13996163354773       110.90153428281937       8.040569334518267        # O
132  132  1    114.05835315393699       110.90153428281937       8.040569334518267        # O
133  133  1    123.9761720270765        110.90153428281937       8.040569334518267        # O
134  134  1    133.89456354746576       110.90153428281937       8.040569334518267        # O
135  135  1    143.8123824779388        110.90153428281937       8.040569334518267        # O
136  136  1    153.73077399832803       110.90153428281937       8.040569334518267        # O
137  137  1    4.958909436569762        110.90153428281937       8.040569334518267        # O
138  138  1    14.877300956959012       110.90153428281937       8.040569334518267        # O
139  139  1    24.79511988743206        110.90153428281937       8.040569334518267        # O
140  140  1    34.71351140782131        110.90153428281937       8.040569334518267        # O
141  141  1    44.631330338294354       110.90153428281937       8.040569334518267        # O
142  142  1    54.54972185868361        110.90153428281937       8.040569334518267        # O
143  143  1    64.46754073182314        110.90153428281937       8.040569334518267        # O
144  144  1    74.38593225221238        110.90153428281937       8.040569334518267        # O
145  145  1    79.34484174611568        113.78209362675409       8.040569334518267        # O
146  146  1    89.26323326650493        113.78209362675409       8.040569334518267        # O
147  147  1    99.18105213964445        113.78209362675409       8.040569334518267        # O
148  148  1    109.09944371736722       113.78209362675409       8.040569334518267        # O
149  149  1    119.01726259050673       113.78209362675409       8.040569334518267        # O
150  150  1    128.935654110896         113.78209362675409       8.040569334518267        # O
151  151  1    138.85347304136903       113.78209362675409       8.040569334518267        # O
152  152  1    148.7718645617583        113.78209362675409       8.040569334518267        # O
153  153  1    158.6896834348978        113.78209362675409       8.040569334518267        # O
154  154  1    9.91839152038925         113.78209362675409       8.040569334518267        # O
155  155  1    19.836210450862296       113.78209362675409       8.040569334518267        # O
156  156  1    29.754601971251546       113.78209362675409       8.040569334518267        # O
157  157  1    39.67242084439107        113.78209362675409       8.040569334518267        # O
158  158  1    49.59081236478032        113.78209362675409       8.040569334518267        # O
159  159  1    59.508631295253366       113.78209362675409       8.040569334518267        # O
160  160  1    69.42702281564262        113.78209362675409       8.040569334518267        # O
161  161  1    89.26323326650493        119.54321225729005       8.040569334518267        # O
162  162  1    99.18105213964445        119.54321225729005       8.040569334518267        # O
163  163  1    109.09944371736722       119.54321225729005       8.040569334518267        # O
164  164  1    119.01726259050673       119.54321225729005       8.040569334518267        # O
165  165  1    128.935654110896         119.54321225729005       8.040569334518267        # O
166  166  1    138.85347304136903       119.54321225729005       8.040569334518267        # O
167  167  1    148.7718645617583        119.54321225729005       8.040569334518267        # O
168  168  1    158.6896834348978        119.54321225729005       8.040569334518267        # O
169  169  1    9.91839152038925         119.54321225729005       8.040569334518267        # O
170  170  1    19.836210450862296       119.54321225729005       8.040569334518267        # O
171  171  1    29.754601971251546       119.54321225729005       8.040569334518267        # O
172  172  1    39.67242084439107        119.54321225729005       8.040569334518267        # O
173  173  1    49.59081236478032        119.54321225729005       8.040569334518267        # O
174  174  1    59.508631295253366       119.54321225729005       8.040569334518267        # O
175  175  1    69.42702281564262        119.54321225729005       8.040569334518267        # O
176  176  1    79.34484174611568        119.54321225729005       8.040569334518267        # O
177  177  1    84.30375118268543        122.4237716012248        8.040569334518267        # O
178  178  1    94.22214270307468        122.4237716012248        8.040569334518267        # O
179  179  1    104.13996163354773       122.4237716012248        8.040569334518267        # O
180  180  1    114.05835315393699       122.4237716012248        8.040569334518267        # O
181  181  1    123.9761720270765        122.4237716012248        8.040569334518267        # O
182  182  1    133.89456354746576       122.4237716012248        8.040569334518267        # O
183  183  1    143.8123824779388        122.4237716012248        8.040569334518267        # O
184  184  1    153.73077399832803       122.4237716012248        8.040569334518267        # O
185  185  1    4.958909436569762        122.4237716012248        8.040569334518267        # O
186  186  1    14.877300956959012       122.4237716012248        8.040569334518267        # O
187  187  1    24.79511988743206        122.4237716012248        8.040569334518267        # O
188  188  1    34.71351140782131        122.4237716012248        8.040569334518267        # O
189  189  1    44.631330338294354       122.4237716012248        8.040569334518267        # O
190  190  1    54.54972185868361        122.4237716012248        8.040569334518267        # O
191  191  1    64.46754073182314        122.4237716012248        8.040569334518267        # O
192  192  1    74.38593225221238        122.4237716012248        8.040569334518267        # O
193  193  1    84.30375118268543        128.18489028909428       8.040569334518267        # O
194  194  1    94.22214270307468        128.18489028909428       8.040569334518267        # O
195  195  1    104.13996163354773       128.18489028909428       8.040569334518267        # O
196  196  1    114.05835315393699       128.18489028909428       8.040569334518267        # O
197  197  1    123.9761720270765        128.18489028909428       8.040569334518267        # O
198  198  1    133.89456354746576       128.18489028909428       8.040569334518267        # O
199  199  1    143.8123824779388        128.18489028909428       8.040569334518267        # O
200  200  1    153.73077399832803       128.18489028909428       8.040569334518267        # O
201  201  1    4.958909436569762        128.18489028909428       8.040569334518267        # O
202  202  1    14.877300956959012       128.18489028909428       8.040569334518267        # O
203  203  1    24.79511988743206        128.18489028909428       8.040569334518267        # O
204  204  1    34.71351140782131        128.18489028909428       8.040569334518267        # O
205  205  1    44.631330338294354       128.18489028909428       8.040569334518267        # O
206  206  1    54.54972185868361        128.18489028909428       8.040569334518267        # O
207  207  1    64.46754073182314        128.18489028909428       8.040569334518267        # O
208  208  1    74.38593225221238        128.18489028909428       8.040569334518267        # O
209  209  1    79.34484174611568        131.0654495756955        8.040569334518267        # O
210  210  1    89.26323326650493        131.0654495756955        8.040569334518267        # O
211  211  1    99.18105213964445        131.0654495756955        8.040569334518267        # O
212  212  1    109.09944371736722       131.0654495756955        8.040569334518267        # O
213  213  1    119.01726259050673       131.0654495756955        8.040569334518267        # O
214  214  1    128.935654110896         131.0654495756955        8.040569334518267        # O
215  215  1    138.85347304136903       131.0654495756955        8.040569334518267        # O
216  216  1    148.7718645617583        131.0654495756955        8.040569334518267        # O
217  217  1    158.6896834348978        131.0654495756955        8.040569334518267        # O
218  218  1    9.91839152038925         131.0654495756955        8.040569334518267        # O
219  219  1    19.836210450862296       131.0654495756955        8.040569334518267        # O
220  220  1    29.754601971251546       131.0654495756955        8.040569334518267        # O
221  221  1    39.67242084439107        131.0654495756955        8.040569334518267        # O
222  222  1    49.59081236478032        131.0654495756955        8.040569334518267        # O
223  223  1    59.508631295253366       131.0654495756955        8.040569334518267        # O
224  224  1    69.42702281564262        131.0654495756955        8.040569334518267        # O
225  225  1    89.26323326650493        136.82656826356498       8.040569334518267        # O
226  226  1    99.18105213964445        136.82656826356498       8.040569334518267        # O
227  227  1    109.09944371736722       136.82656826356498       8.040569334518267        # O
228  228  1    119.01726259050673       136.82656826356498       8.040569334518267        # O
229  229  1    128.935654110896         136.82656826356498       8.040569334518267        # O
230  230  1    138.85347304136903       136.82656826356498       8.040569334518267        # O
231  231  1    148.7718645617583        136.82656826356498       8.040569334518267        # O
232  232  1    158.6896834348978        136.82656826356498       8.040569334518267        # O
233  233  1    9.91839152038925         136.82656826356498       8.040569334518267        # O
234  234  1    19.836210450862296       136.82656826356498       8.040569334518267        # O
235  235  1    29.754601971251546       136.82656826356498       8.040569334518267        # O
236  236  1    39.67242084439107        136.82656826356498       8.040569334518267        # O
237  237  1    49.59081236478032        136.82656826356498       8.040569334518267        # O
238  238  1    59.508631295253366       136.82656826356498       8.040569334518267        # O
239  239  1    69.42702281564262        136.82656826356498       8.040569334518267        # O
240  240  1    79.34484174611568        136.82656826356498       8.040569334518267        # O
241  241  1    84.30375118268543        1.440279671967371        8.040569334518267        # O
242  242  1    94.22214270307468        1.440279671967371        8.040569334518267        # O
243  243  1    104.13996163354773       1.440279671967371        8.040569334518267        # O
244  244  1    114.05835315393699       1.440279671967371        8.040569334518267        # O
245  245  1    123.9761720270765        1.440279671967371        8.040569334518267        # O
246  246  1    133.89456354746576       1.440279671967371        8.040569334518267        # O
247  247  1    143.8123824779388        1.440279671967371        8.040569334518267        # O
248  248  1    153.73077399832803       1.440279671967371        8.040569334518267        # O
249  249  1    4.958909436569762        1.440279671967371        8.040569334518267        # O
250  250  1    14.877300956959012       1.440279671967371        8.040569334518267        # O
251  251  1    24.79511988743206        1.440279671967371        8.040569334518267        # O
252  252  1    34.71351140782131        1.440279671967371        8.040569334518267        # O
253  253  1    44.631330338294354       1.440279671967371        8.040569334518267        # O
254  254  1    54.54972185868361        1.440279671967371        8.040569334518267        # O
255  255  1    64.46754073182314        1.440279671967371        8.040569334518267        # O
256  256  1    74.38593225221238        1.440279671967371        8.040569334518267        # O
257  257  1    84.30375118268543        7.201398302503329        8.040569334518267        # O
258  258  1    94.22214270307468        7.201398302503329        8.040569334518267        # O
259  259  1    104.13996163354773       7.201398302503329        8.040569334518267        # O
260  260  1    114.05835315393699       7.201398302503329        8.040569334518267        # O
261  261  1    123.9761720270765        7.201398302503329        8.040569334518267        # O
262  262  1    133.89456354746576       7.201398302503329        8.040569334518267        # O
263  263  1    143.8123824779388        7.201398302503329        8.040569334518267        # O
264  264  1    153.73077399832803       7.201398302503329        8.040569334518267        # O
265  265  1    4.958909436569762        7.201398302503329        8.040569334518267        # O
266  266  1    14.877300956959012       7.201398302503329        8.040569334518267        # O
267  267  1    24.79511988743206        7.201398302503329        8.040569334518267        # O
268  268  1    34.71351140782131        7.201398302503329        8.040569334518267        # O
269  269  1    44.631330338294354       7.201398302503329        8.040569334518267        # O
270  270  1    54.54972185868361        7.201398302503329        8.040569334518267        # O
271  271  1    64.46754073182314        7.201398302503329        8.040569334518267        # O
272  272  1    74.38593225221238        7.201398302503329        8.040569334518267        # O
273  273  1    79.34484174611568        10.081957646438072       8.040569334518267        # O
274  274  1    89.26323326650493        10.081957646438072       8.040569334518267        # O
275  275  1    99.18105213964445        10.081957646438072       8.040569334518267        # O
276  276  1    109.09944371736722       10.081957646438072       8.040569334518267        # O
277  277  1    119.01726259050673       10.081957646438072       8.040569334518267        # O
278  278  1    128.935654110896         10.081957646438072       8.040569334518267        # O
279  279  1    138.85347304136903       10.081957646438072       8.040569334518267        # O
280  280  1    148.7718645617583        10.081957646438072       8.040569334518267        # O
281  281  1    158.6896834348978        10.081957646438072       8.040569334518267        # O
282  282  1    9.91839152038925         10.081957646438072       8.040569334518267        # O
283  283  1    19.836210450862296       10.081957646438072       8.040569334518267        # O
284  284  1    29.754601971251546       10.081957646438072       8.040569334518267        # O
285  285  1    39.67242084439107        10.081957646438072       8.040569334518267        # O
286  286  1    49.59081236478032        10.081957646438072       8.040569334518267        # O
287  287  1    59.508631295253366       10.081957646438072       8.040569334518267        # O
288  288  1    69.42702281564262        10.081957646438072       8.040569334518267        # O
289  289  1    89.26323326650493        15.843076334307554       8.040569334518267        # O
290  290  1    99.18105213964445        15.843076334307554       8.040569334518267        # O
291  291  1    109.09944371736722       15.843076334307554       8.040569334518267        # O
292  292  1    119.01726259050673       15.843076334307554       8.040569334518267        # O
293  293  1    128.935654110896         15.843076334307554       8.040569334518267        # O
294  294  1    138.85347304136903       15.843076334307554       8.040569334518267        # O
295  295  1    148.7718645617583        15.843076334307554       8.040569334518267        # O
296  296  1    158.6896834348978        15.843076334307554       8.040569334518267        # O
297  297  1    9.91839152038925         15.843076334307554       8.040569334518267        # O
298  298  1    19.836210450862296       15.843076334307554       8.040569334518267        # O
299  299  1    29.754601971251546       15.843076334307554       8.040569334518267        # O
300  300  1    39.67242084439107        15.843076334307554       8.040569334518267        # O
301  301  1    49.59081236478032        15.843076334307554       8.040569334518267        # O
302  302  1    59.508631295253366       15.843076334307554       8.040569334518267        # O
303  303  1    69.42702281564262        15.843076334307554       8.040569334518267        # O
304  304  1    79.34484174611568        15.843076334307554       8.040569334518267        # O
305  305  1    84.30375118268543        18.723635678242296       8.040569334518267        # O
306  306  1    94.22214270307468        18.723635678242296       8.040569334518267        # O
307  307  1    104.13996163354773       18.723635678242296       8.040569334518267        # O
308  308  1    114.05835315393699       18.723635678242296       8.040569334518267        # O
309  309  1    123.9761720270765        18.723635678242296       8.040569334518267        # O
310  310  1    133.89456354746576       18.723635678242296       8.040569334518267        # O
311  311  1    143.8123824779388        18.723635678242296       8.040569334518267        # O
312  312  1    153.73077399832803       18.723635678242296       8.040569334518267        # O
313  313  1    4.958909436569762        18.723635678242296       8.040569334518267        # O
314  314  1    14.877300956959012       18.723635678242296       8.040569334518267        # O