DATA FILE Produced from netmc results (cf David Morley)
1290 atoms
1935 bonds
3870 angles
0 dihedrals
0 impropers
1 atom types
1 bond types
1 angle types
0 dihedral types
0 improper types
0.00000 45.40063187 xlo xhi
0.00000 39.62840265 ylo yhi

# Pair Coeffs
#
# 1  Si

# Bond Coeffs
# 
# 1  Si-Si

# Angle Coeffs
# 
# 1  Si-Si-Si

 Masses

1 32.01000 # Si

 Atoms # molecular

1    1    1    27.06577389              21.08434243              0.0                     # Si
2    2    1    28.81190082              21.08434243              0.0                     # Si
3    3    1    30.55812856              21.08434243              0.0                     # Si
4    4    1    32.30425549              21.08434243              0.0                     # Si
5    5    1    34.05048323              21.08434243              0.0                     # Si
6    6    1    35.79661016              21.08434243              0.0                     # Si
7    7    1    37.5428379               21.08434243              0.0                     # Si
8    8    1    39.28896483              21.08434243              0.0                     # Si
9    9    1    41.03519257              21.08434243              0.0                     # Si
10   10   1    42.7813195               21.08434243              0.0                     # Si
11   11   1    44.52754724              21.08434243              0.0                     # Si
12   12   1    0.87306346               21.08434243              0.0                     # Si
13   13   1    2.61929121               21.08434243              0.0                     # Si
14   14   1    4.36541813               21.08434243              0.0                     # Si
15   15   1    6.11164588               21.08434243              0.0                     # Si
16   16   1    7.8577728                21.08434243              0.0                     # Si
17   17   1    9.60400054               21.08434243              0.0                     # Si
18   18   1    11.35012747              21.08434243              0.0                     # Si
19   19   1    13.09635521              21.08434243              0.0                     # Si
20   20   1    14.84248214              21.08434243              0.0                     # Si
21   21   1    27.93883735              21.59239888              0.0                     # Si
22   22   1    29.6850651               21.59239888              0.0                     # Si
23   23   1    31.43119202              21.59239888              0.0                     # Si
24   24   1    33.17741977              21.59239888              0.0                     # Si
25   25   1    34.92354669              21.59239888              0.0                     # Si
26   26   1    36.66977444              21.59239888              0.0                     # Si
27   27   1    38.41590136              21.59239888              0.0                     # Si
28   28   1    40.16212911              21.59239888              0.0                     # Si
29   29   1    41.90825603              21.59239888              0.0                     # Si
30   30   1    43.65448377              21.59239888              0.0                     # Si
31   31   1    45.4006107               21.59239888              0.0                     # Si
32   32   1    1.74622774               21.59239888              0.0                     # Si
33   33   1    3.49235467               21.59239888              0.0                     # Si
34   34   1    5.23858241               21.59239888              0.0                     # Si
35   35   1    6.98470934               21.59239888              0.0                     # Si
36   36   1    8.73093708               21.59239888              0.0                     # Si
37   37   1    10.47706401              21.59239888              0.0                     # Si
38   38   1    12.22329175              21.59239888              0.0                     # Si
39   39   1    13.96941868              21.59239888              0.0                     # Si
40   40   1    27.93883735              22.60851177              0.0                     # Si
41   41   1    29.6850651               22.60851177              0.0                     # Si
42   42   1    31.43119202              22.60851177              0.0                     # Si
43   43   1    33.17741977              22.60851177              0.0                     # Si
44   44   1    34.92354669              22.60851177              0.0                     # Si
45   45   1    36.66977444              22.60851177              0.0                     # Si
46   46   1    38.41590136              22.60851177              0.0                     # Si
47   47   1    40.16212911              22.60851177              0.0                     # Si
48   48   1    41.90825603              22.60851177              0.0                     # Si
49   49   1    43.65448377              22.60851177              0.0                     # Si
50   50   1    45.4006107               22.60851177              0.0                     # Si
51   51   1    1.74622774               22.60851177              0.0                     # Si
52   52   1    3.49235467               22.60851177              0.0                     # Si
53   53   1    5.23858241               22.60851177              0.0                     # Si
54   54   1    6.98470934               22.60851177              0.0                     # Si
55   55   1    8.73093708               22.60851177              0.0                     # Si
56   56   1    10.47706401              22.60851177              0.0                     # Si
57   57   1    12.22329175              22.60851177              0.0                     # Si
58   58   1    13.96941868              22.60851177              0.0                     # Si
59   59   1    27.06577389              23.11656821              0.0                     # Si
60   60   1    28.81190082              23.11656821              0.0                     # Si
61   61   1    30.55812856              23.11656821              0.0                     # Si
62   62   1    32.30425549              23.11656821              0.0                     # Si
63   63   1    34.05048323              23.11656821              0.0                     # Si
64   64   1    35.79661016              23.11656821              0.0                     # Si
65   65   1    37.5428379               23.11656821              0.0                     # Si
66   66   1    39.28896483              23.11656821              0.0                     # Si
67   67   1    41.03519257              23.11656821              0.0                     # Si
68   68   1    42.7813195               23.11656821              0.0                     # Si
69   69   1    44.52754724              23.11656821              0.0                     # Si
70   70   1    0.87306346               23.11656821              0.0                     # Si
71   71   1    2.61929121               23.11656821              0.0                     # Si
72   72   1    4.36541813               23.11656821              0.0                     # Si
73   73   1    6.11164588               23.11656821              0.0                     # Si
74   74   1    7.8577728                23.11656821              0.0                     # Si
75   75   1    9.60400054               23.11656821              0.0                     # Si
76   76   1    11.35012747              23.11656821              0.0                     # Si
77   77   1    13.09635521              23.11656821              0.0                     # Si
78   78   1    14.84248214              23.11656821              0.0                     # Si
79   79   1    27.06577389              24.1326811               0.0                     # Si
80   80   1    28.81190082              24.1326811               0.0                     # Si
81   81   1    30.55812856              24.1326811               0.0                     # Si
82   82   1    32.30425549              24.1326811               0.0                     # Si
83   83   1    34.05048323              24.1326811               0.0                     # Si
84   84   1    35.79661016              24.1326811               0.0                     # Si
85   85   1    37.5428379               24.1326811               0.0                     # Si
86   86   1    39.28896483              24.1326811               0.0                     # Si
87   87   1    41.03519257              24.1326811               0.0                     # Si
88   88   1    42.7813195               24.1326811               0.0                     # Si
89   89   1    44.52754724              24.1326811               0.0                     # Si
90   90   1    0.87306346               24.1326811               0.0                     # Si
91   91   1    2.61929121               24.1326811               0.0                     # Si
92   92   1    4.36541813               24.1326811               0.0                     # Si
93   93   1    6.11164588               24.1326811               0.0                     # Si
94   94   1    7.8577728                24.1326811               0.0                     # Si
95   95   1    9.60400054               24.1326811               0.0                     # Si
96   96   1    11.35012747              24.1326811               0.0                     # Si
97   97   1    13.09635521              24.1326811               0.0                     # Si
98   98   1    14.84248214              24.1326811               0.0                     # Si
99   99   1    27.93883735              24.64073754              0.0                     # Si
100  100  1    29.6850651               24.64073754              0.0                     # Si
101  101  1    31.43119202              24.64073754              0.0                     # Si
102  102  1    33.17741977              24.64073754              0.0                     # Si
103  103  1    34.92354669              24.64073754              0.0                     # Si
104  104  1    36.66977444              24.64073754              0.0                     # Si
105  105  1    38.41590136              24.64073754              0.0                     # Si
106  106  1    40.16212911              24.64073754              0.0                     # Si
107  107  1    41.90825603              24.64073754              0.0                     # Si
108  108  1    43.65448377              24.64073754              0.0                     # Si
109  109  1    45.4006107               24.64073754              0.0                     # Si
110  110  1    1.74622774               24.64073754              0.0                     # Si
111  111  1    3.49235467               24.64073754              0.0                     # Si
112  112  1    5.23858241               24.64073754              0.0                     # Si
113  113  1    6.98470934               24.64073754              0.0                     # Si
114  114  1    8.73093708               24.64073754              0.0                     # Si
115  115  1    10.47706401              24.64073754              0.0                     # Si
116  116  1    12.22329175              24.64073754              0.0                     # Si
117  117  1    13.96941868              24.64073754              0.0                     # Si
118  118  1    26.19271043              25.65685043              0.0                     # Si
119  119  1    27.93883735              25.65685043              0.0                     # Si
120  120  1    29.6850651               25.65685043              0.0                     # Si
121  121  1    31.43119202              25.65685043              0.0                     # Si
122  122  1    33.17741977              25.65685043              0.0                     # Si
123  123  1    34.92354669              25.65685043              0.0                     # Si
124  124  1    36.66977444              25.65685043              0.0                     # Si
125  125  1    38.41590136              25.65685043              0.0                     # Si
126  126  1    40.16212911              25.65685043              0.0                     # Si
127  127  1    41.90825603              25.65685043              0.0                     # Si
128  128  1    43.65448377              25.65685043              0.0                     # Si
129  129  1    45.4006107               25.65685043              0.0                     # Si
130  130  1    1.74622774               25.65685043              0.0                     # Si
131  131  1    3.49235467               25.65685043              0.0                     # Si
132  132  1    5.23858241               25.65685043              0.0                     # Si
133  133  1    6.98470934               25.65685043              0.0                     # Si
134  134  1    8.73093708               25.65685043              0.0                     # Si
135  135  1    10.47706401              25.65685043              0.0                     # Si
136  136  1    12.22329175              25.65685043              0.0                     # Si
137  137  1    13.96941868              25.65685043              0.0                     # Si
138  138  1    15.71564642              25.65685043              0.0                     # Si
139  139  1    23.57341922              26.16490688              0.0                     # Si
140  140  1    25.31954615              26.16490688              0.0                     # Si
141  141  1    27.06577389              26.16490688              0.0                     # Si
142  142  1    28.81190082              26.16490688              0.0                     # Si
143  143  1    30.55812856              26.16490688              0.0                     # Si
144  144  1    32.30425549              26.16490688              0.0                     # Si
145  145  1    34.05048323              26.16490688              0.0                     # Si
146  146  1    35.79661016              26.16490688              0.0                     # Si
147  147  1    37.5428379               26.16490688              0.0                     # Si
148  148  1    39.28896483              26.16490688              0.0                     # Si
149  149  1    41.03519257              26.16490688              0.0                     # Si
150  150  1    42.7813195               26.16490688              0.0                     # Si
151  151  1    44.52754724              26.16490688              0.0                     # Si
152  152  1    0.87306346               26.16490688              0.0                     # Si
153  153  1    2.61929121               26.16490688              0.0                     # Si
154  154  1    4.36541813               26.16490688              0.0                     # Si
155  155  1    6.11164588               26.16490688              0.0                     # Si
156  156  1    7.8577728                26.16490688              0.0                     # Si
157  157  1    9.60400054               26.16490688              0.0                     # Si
158  158  1    11.35012747              26.16490688              0.0                     # Si
159  159  1    13.09635521              26.16490688              0.0                     # Si
160  160  1    14.84248214              26.16490688              0.0                     # Si
161  161  1    16.58870988              26.16490688              0.0                     # Si
162  162  1    18.33483681              26.16490688              0.0                     # Si
163  163  1    20.08106455              26.16490688              0.0                     # Si
164  164  1    21.82719148              26.16490688              0.0                     # Si
165  165  1    23.57341922              27.18101976              0.0                     # Si
166  166  1    25.31954615              27.18101976              0.0                     # Si
167  167  1    27.06577389              27.18101976              0.0                     # Si
168  168  1    28.81190082              27.18101976              0.0                     # Si
169  169  1    30.55812856              27.18101976              0.0                     # Si
170  170  1    32.30425549              27.18101976              0.0                     # Si
171  171  1    34.05048323              27.18101976              0.0                     # Si
172  172  1    35.79661016              27.18101976              0.0                     # Si
173  173  1    37.5428379               27.18101976              0.0                     # Si
174  174  1    39.28896483              27.18101976              0.0                     # Si
175  175  1    41.03519257              27.18101976              0.0                     # Si
176  176  1    42.7813195               27.18101976              0.0                     # Si
177  177  1    44.52754724              27.18101976              0.0                     # Si
178  178  1    0.87306346               27.18101976              0.0                     # Si
179  179  1    2.61929121               27.18101976              0.0                     # Si
180  180  1    4.36541813               27.18101976              0.0                     # Si
181  181  1    6.11164588               27.18101976              0.0                     # Si
182  182  1    7.8577728                27.18101976              0.0                     # Si
183  183  1    9.60400054               27.18101976              0.0                     # Si
184  184  1    11.35012747              27.18101976              0.0                     # Si
185  185  1    13.09635521              27.18101976              0.0                     # Si
186  186  1    14.84248214              27.18101976              0.0                     # Si
187  187  1    16.58870988              27.18101976              0.0                     # Si
188  188  1    18.33483681              27.18101976              0.0                     # Si
189  189  1    20.08106455              27.18101976              0.0                     # Si
190  190  1    21.82719148              27.18101976              0.0                     # Si
191  191  1    22.70035576              27.68907621              0.0                     # Si
192  192  1    24.44648269              27.68907621              0.0                     # Si
193  193  1    26.19271043              27.68907621              0.0                     # Si
194  194  1    27.93883735              27.68907621              0.0                     # Si
195  195  1    29.6850651               27.68907621              0.0                     # Si
196  196  1    31.43119202              27.68907621              0.0                     # Si
197  197  1    33.17741977              27.68907621              0.0                     # Si
198  198  1    34.92354669              27.68907621              0.0                     # Si
199  199  1    36.66977444              27.68907621              0.0                     # Si
200  200  1    38.41590136              27.68907621              0.0                     # Si
201  201  1    40.16212911              27.68907621              0.0                     # Si
202  202  1    41.90825603              27.68907621              0.0                     # Si
203  203  1    43.65448377              27.68907621              0.0                     # Si
204  204  1    45.4006107               27.68907621              0.0                     # Si
205  205  1    1.74622774               27.68907621              0.0                     # Si
206  206  1    3.49235467               27.68907621              0.0                     # Si
207  207  1    5.23858241               27.68907621              0.0                     # Si
208  208  1    6.98470934               27.68907621              0.0                     # Si
209  209  1    8.73093708               27.68907621              0.0                     # Si
210  210  1    10.47706401              27.68907621              0.0                     # Si
211  211  1    12.22329175              27.68907621              0.0                     # Si
212  212  1    13.96941868              27.68907621              0.0                     # Si
213  213  1    15.71564642              27.68907621              0.0                     # Si
214  214  1    17.46177335              27.68907621              0.0                     # Si
215  215  1    19.20800109              27.68907621              0.0                     # Si
216  216  1    20.95412802              27.68907621              0.0                     # Si
217  217  1    24.44648269              28.7051891               0.0                     # Si
218  218  1    26.19271043              28.7051891               0.0                     # Si
219  219  1    27.93883735              28.7051891               0.0                     # Si
220  220  1    29.6850651               28.7051891               0.0                     # Si
221  221  1    31.43119202              28.7051891               0.0                     # Si
222  222  1    33.17741977              28.7051891               0.0                     # Si
223  223  1    34.92354669              28.7051891               0.0                     # Si
224  224  1    36.66977444              28.7051891               0.0                     # Si
225  225  1    38.41590136              28.7051891               0.0                     # Si
226  226  1    40.16212911              28.7051891               0.0                     # Si
227  227  1    41.90825603              28.7051891               0.0                     # Si
228  228  1    43.65448377              28.7051891               0.0                     # Si
229  229  1    45.4006107               28.7051891               0.0                     # Si
230  230  1    1.74622774               28.7051891               0.0                     # Si
231  231  1    3.49235467               28.7051891               0.0                     # Si
232  232  1    5.23858241               28.7051891               0.0                     # Si
233  233  1    6.98470934               28.7051891               0.0                     # Si
234  234  1    8.73093708               28.7051891               0.0                     # Si
235  235  1    10.47706401              28.7051891               0.0                     # Si
236  236  1    12.22329175              28.7051891               0.0                     # Si
237  237  1    13.96941868              28.7051891               0.0                     # Si
238  238  1    15.71564642              28.7051891               0.0                     # Si
239  239  1    17.46177335              28.7051891               0.0                     # Si
240  240  1    19.20800109              28.7051891               0.0                     # Si
241  241  1    20.95412802              28.7051891               0.0                     # Si
242  242  1    22.70035576              28.7051891               0.0                     # Si
243  243  1    23.57341922              29.21324554              0.0                     # Si
244  244  1    25.31954615              29.21324554              0.0                     # Si
245  245  1    27.06577389              29.21324554              0.0                     # Si
246  246  1    28.81190082              29.21324554              0.0                     # Si
247  247  1    30.55812856              29.21324554              0.0                     # Si
248  248  1    32.30425549              29.21324554              0.0                     # Si
249  249  1    34.05048323              29.21324554              0.0                     # Si
250  250  1    35.79661016              29.21324554              0.0                     # Si
251  251  1    37.5428379               29.21324554              0.0                     # Si
252  252  1    39.28896483              29.21324554              0.0                     # Si
253  253  1    41.03519257              29.21324554              0.0                     # Si
254  254  1    42.7813195               29.21324554              0.0                     # Si
255  255  1    44.52754724              29.21324554              0.0                     # Si
256  256  1    0.87306346               29.21324554              0.0                     # Si
257  257  1    2.61929121               29.21324554              0.0                     # Si
258  258  1    4.36541813               29.21324554              0.0                     # Si
259  259  1    6.11164588               29.21324554              0.0                     # Si
260  260  1    7.8577728                29.21324554              0.0                     # Si
261  261  1    9.60400054               29.21324554              0.0                     # Si
262  262  1    11.35012747              29.21324554              0.0                     # Si
263  263  1    13.09635521              29.21324554              0.0                     # Si
264  264  1    14.84248214              29.21324554              0.0                     # Si
265  265  1    16.58870988              29.21324554              0.0                     # Si
266  266  1    18.33483681              29.21324554              0.0                     # Si
267  267  1    20.08106455              29.21324554              0.0                     # Si
268  268  1    21.82719148              29.21324554              0.0                     # Si
269  269  1    23.57341922              30.22935843              0.0                     # Si
270  270  1    25.31954615              30.22935843              0.0                     # Si
271  271  1    27.06577389              30.22935843              0.0                     # Si
272  272  1    28.81190082              30.22935843              0.0                     # Si
273  273  1    30.55812856              30.22935843              0.0                     # Si
274  274  1    32.30425549              30.22935843              0.0                     # Si
275  275  1    34.05048323              30.22935843              0.0                     # Si
276  276  1    35.79661016              30.22935843              0.0                     # Si
277  277  1    37.5428379               30.22935843              0.0                     # Si
278  278  1    39.28896483              30.22935843              0.0                     # Si
279  279  1    41.03519257              30.22935843              0.0                     # Si
280  280  1    42.7813195               30.22935843              0.0                     # Si
281  281  1    44.52754724              30.22935843              0.0                     # Si
282  282  1    0.87306346               30.22935843              0.0                     # Si
283  283  1    2.61929121               30.22935843              0.0                     # Si
284  284  1    4.36541813               30.22935843              0.0                     # Si
285  285  1    6.11164588               30.22935843              0.0                     # Si
286  286  1    7.8577728                30.22935843              0.0                     # Si
287  287  1    9.60400054               30.22935843              0.0                     # Si
288  288  1    11.35012747              30.22935843              0.0                     # Si
289  289  1    13.09635521              30.22935843              0.0                     # Si
290  290  1    14.84248214              30.22935843              0.0                     # Si
291  291  1    16.58870988              30.22935843              0.0                     # Si
292  292  1    18.33483681              30.22935843              0.0                     # Si
293  293  1    20.08106455              30.22935843              0.0                     # Si
294  294  1    21.82719148              30.22935843              0.0                     # Si
295  295  1    22.70035576              30.73741487              0.0                     # Si
296  296  1    24.44648269              30.73741487              0.0                     # Si
297  297  1    26.19271043              30.73741487              0.0                     # Si
298  298  1    27.93883735              30.73741487              0.0                     # Si
299  299  1    29.6850651               30.73741487              0.0                     # Si
300  300  1    31.43119202              30.73741487              0.0                     # Si
301  301  1    33.17741977              30.73741487              0.0                     # Si
302  302  1    34.92354669              30.73741487              0.0                     # Si
303  303  1    36.66977444              30.73741487              0.0                     # Si
304  304  1    38.41590136              30.73741487              0.0                     # Si
305  305  1    40.16212911              30.73741487              0.0                     # Si
306  306  1    41.90825603              30.73741487              0.0                     # Si
307  307  1    43.65448377              30.73741487              0.0                     # Si
308  308  1    45.4006107               30.73741487              0.0                     # Si
309  309  1    1.74622774               30.73741487              0.0                     # Si
310  310  1    3.49235467               30.73741487              0.0                     # Si
311  311  1    5.23858241               30.73741487              0.0                     # Si
312  312  1    6.98470934               30.73741487              0.0                     # Si
313  313  1    8.73093708               30.73741487              0.0                     # Si
314  314  1    10.47706401              30.73741487              0.0                     # Si
315  315  1    12.22329175              30.73741487              0.0                     # Si