DATA FILE Produced from netmc results (cf David Morley)
3225 atoms
7740 bonds
0 angles
0 dihedrals
0 impropers
2 atom types
2 bond types
0 angle types
0 dihedral types
0 improper types
0.00000 260.29782715425796 xlo xhi
0.00000 227.20360220812577 ylo yhi

# Pair Coeffs
#
# 1  O
# 2  Si

# Bond Coeffs
# 
# 1  O-O
# 2  Si-O
# 3  O-O rep
# 4  Si-Si rep

 Masses

1 28.10000 # O 
2 32.01000 # Si

 Atoms # molecular

1    1    2    155.17762294561317       120.88396780952836       5.0                      # Si
2    2    2    165.18878418046089       120.88396780952836       5.0                      # Si
3    3    2    175.20052339457612       120.88396780952836       5.0                      # Si
4    4    2    185.21168462942384       120.88396780952836       5.0                      # Si
5    5    2    195.22342384353908       120.88396780952836       5.0                      # Si
6    6    2    205.2345850783868        120.88396780952836       5.0                      # Si
7    7    2    215.2463242925021        120.88396780952836       5.0                      # Si
8    8    2    225.25748552734976       120.88396780952836       5.0                      # Si
9    9    2    235.26922474146505       120.88396780952836       5.0                      # Si
10   10   2    245.28038597631277       120.88396780952836       5.0                      # Si
11   11   2    255.292125190428         120.88396780952836       5.0                      # Si
12   12   2    5.005580588757088        120.88396780952836       5.0                      # Si
13   13   2    15.017319860205884       120.88396780952836       5.0                      # Si
14   14   2    25.02848103772006        120.88396780952836       5.0                      # Si
15   15   2    35.04022030916886        120.88396780952836       5.0                      # Si
16   16   2    45.051381486683034       120.88396780952836       5.0                      # Si
17   17   2    55.0631207007983         120.88396780952836       5.0                      # Si
18   18   2    65.074281935646          120.88396780952836       5.0                      # Si
19   19   2    75.08602114976128        120.88396780952836       5.0                      # Si
20   20   2    85.09718238460897        120.88396780952836       5.0                      # Si
21   21   2    160.18320353437025       123.79683453758138       5.0                      # Si
22   22   2    170.19494280581904       123.79683453758138       5.0                      # Si
23   23   2    180.20610398333324       123.79683453758138       5.0                      # Si
24   24   2    190.21784325478203       123.79683453758138       5.0                      # Si
25   25   2    200.2290044322962        123.79683453758138       5.0                      # Si
26   26   2    210.24074370374498       123.79683453758138       5.0                      # Si
27   27   2    220.25190488125915       123.79683453758138       5.0                      # Si
28   28   2    230.26364415270797       123.79683453758138       5.0                      # Si
29   29   2    240.2748053302221        123.79683453758138       5.0                      # Si
30   30   2    250.2865445443374        123.79683453758138       5.0                      # Si
31   31   2    260.2977057791851        123.79683453758138       5.0                      # Si
32   32   2    10.01173921411527        123.79683453758138       5.0                      # Si
33   33   2    20.02290044896297        123.79683453758138       5.0                      # Si
34   34   2    30.034639663078245       123.79683453758138       5.0                      # Si
35   35   2    40.04580089792594        123.79683453758138       5.0                      # Si
36   36   2    50.05754011204122        123.79683453758138       5.0                      # Si
37   37   2    60.068701346888915       123.79683453758138       5.0                      # Si
38   38   2    70.08044056100418        123.79683453758138       5.0                      # Si
39   39   2    80.09160179585189        123.79683453758138       5.0                      # Si
40   40   2    160.18320353437025       129.62256793635385       5.0                      # Si
41   41   2    170.19494280581904       129.62256793635385       5.0                      # Si
42   42   2    180.20610398333324       129.62256793635385       5.0                      # Si
43   43   2    190.21784325478203       129.62256793635385       5.0                      # Si
44   44   2    200.2290044322962        129.62256793635385       5.0                      # Si
45   45   2    210.24074370374498       129.62256793635385       5.0                      # Si
46   46   2    220.25190488125915       129.62256793635385       5.0                      # Si
47   47   2    230.26364415270797       129.62256793635385       5.0                      # Si
48   48   2    240.2748053302221        129.62256793635385       5.0                      # Si
49   49   2    250.2865445443374        129.62256793635385       5.0                      # Si
50   50   2    260.2977057791851        129.62256793635385       5.0                      # Si
51   51   2    10.01173921411527        129.62256793635385       5.0                      # Si
52   52   2    20.02290044896297        129.62256793635385       5.0                      # Si
53   53   2    30.034639663078245       129.62256793635385       5.0                      # Si
54   54   2    40.04580089792594        129.62256793635385       5.0                      # Si
55   55   2    50.05754011204122        129.62256793635385       5.0                      # Si
56   56   2    60.068701346888915       129.62256793635385       5.0                      # Si
57   57   2    70.08044056100418        129.62256793635385       5.0                      # Si
58   58   2    80.09160179585189        129.62256793635385       5.0                      # Si
59   59   2    155.17762294561317       132.53543460707334       5.0                      # Si
60   60   2    165.18878418046089       132.53543460707334       5.0                      # Si
61   61   2    175.20052339457612       132.53543460707334       5.0                      # Si
62   62   2    185.21168462942384       132.53543460707334       5.0                      # Si
63   63   2    195.22342384353908       132.53543460707334       5.0                      # Si
64   64   2    205.2345850783868        132.53543460707334       5.0                      # Si
65   65   2    215.2463242925021        132.53543460707334       5.0                      # Si
66   66   2    225.25748552734976       132.53543460707334       5.0                      # Si
67   67   2    235.26922474146505       132.53543460707334       5.0                      # Si
68   68   2    245.28038597631277       132.53543460707334       5.0                      # Si
69   69   2    255.292125190428         132.53543460707334       5.0                      # Si
70   70   2    5.005580588757088        132.53543460707334       5.0                      # Si
71   71   2    15.017319860205884       132.53543460707334       5.0                      # Si
72   72   2    25.02848103772006        132.53543460707334       5.0                      # Si
73   73   2    35.04022030916886        132.53543460707334       5.0                      # Si
74   74   2    45.051381486683034       132.53543460707334       5.0                      # Si
75   75   2    55.0631207007983         132.53543460707334       5.0                      # Si
76   76   2    65.074281935646          132.53543460707334       5.0                      # Si
77   77   2    75.08602114976128        132.53543460707334       5.0                      # Si
78   78   2    85.09718238460897        132.53543460707334       5.0                      # Si
79   79   2    155.17762294561317       138.36116800584583       5.0                      # Si
80   80   2    165.18878418046089       138.36116800584583       5.0                      # Si
81   81   2    175.20052339457612       138.36116800584583       5.0                      # Si
82   82   2    185.21168462942384       138.36116800584583       5.0                      # Si
83   83   2    195.22342384353908       138.36116800584583       5.0                      # Si
84   84   2    205.2345850783868        138.36116800584583       5.0                      # Si
85   85   2    215.2463242925021        138.36116800584583       5.0                      # Si
86   86   2    225.25748552734976       138.36116800584583       5.0                      # Si
87   87   2    235.26922474146505       138.36116800584583       5.0                      # Si
88   88   2    245.28038597631277       138.36116800584583       5.0                      # Si
89   89   2    255.292125190428         138.36116800584583       5.0                      # Si
90   90   2    5.005580588757088        138.36116800584583       5.0                      # Si
91   91   2    15.017319860205884       138.36116800584583       5.0                      # Si
92   92   2    25.02848103772006        138.36116800584583       5.0                      # Si
93   93   2    35.04022030916886        138.36116800584583       5.0                      # Si
94   94   2    45.051381486683034       138.36116800584583       5.0                      # Si
95   95   2    55.0631207007983         138.36116800584583       5.0                      # Si
96   96   2    65.074281935646          138.36116800584583       5.0                      # Si
97   97   2    75.08602114976128        138.36116800584583       5.0                      # Si
98   98   2    85.09718238460897        138.36116800584583       5.0                      # Si
99   99   2    160.18320353437025       141.2740346765653        5.0                      # Si
100  100  2    170.19494280581904       141.2740346765653        5.0                      # Si
101  101  2    180.20610398333324       141.2740346765653        5.0                      # Si
102  102  2    190.21784325478203       141.2740346765653        5.0                      # Si
103  103  2    200.2290044322962        141.2740346765653        5.0                      # Si
104  104  2    210.24074370374498       141.2740346765653        5.0                      # Si
105  105  2    220.25190488125915       141.2740346765653        5.0                      # Si
106  106  2    230.26364415270797       141.2740346765653        5.0                      # Si
107  107  2    240.2748053302221        141.2740346765653        5.0                      # Si
108  108  2    250.2865445443374        141.2740346765653        5.0                      # Si
109  109  2    260.2977057791851        141.2740346765653        5.0                      # Si
110  110  2    10.01173921411527        141.2740346765653        5.0                      # Si
111  111  2    20.02290044896297        141.2740346765653        5.0                      # Si
112  112  2    30.034639663078245       141.2740346765653        5.0                      # Si
113  113  2    40.04580089792594        141.2740346765653        5.0                      # Si
114  114  2    50.05754011204122        141.2740346765653        5.0                      # Si
115  115  2    60.068701346888915       141.2740346765653        5.0                      # Si
116  116  2    70.08044056100418        141.2740346765653        5.0                      # Si
117  117  2    80.09160179585189        141.2740346765653        5.0                      # Si
118  118  2    150.17204235685608       147.09976807533778       5.0                      # Si
119  119  2    160.18320353437025       147.09976807533778       5.0                      # Si
120  120  2    170.19494280581904       147.09976807533778       5.0                      # Si
121  121  2    180.20610398333324       147.09976807533778       5.0                      # Si
122  122  2    190.21784325478203       147.09976807533778       5.0                      # Si
123  123  2    200.2290044322962        147.09976807533778       5.0                      # Si
124  124  2    210.24074370374498       147.09976807533778       5.0                      # Si
125  125  2    220.25190488125915       147.09976807533778       5.0                      # Si
126  126  2    230.26364415270797       147.09976807533778       5.0                      # Si
127  127  2    240.2748053302221        147.09976807533778       5.0                      # Si
128  128  2    250.2865445443374        147.09976807533778       5.0                      # Si
129  129  2    260.2977057791851        147.09976807533778       5.0                      # Si
130  130  2    10.01173921411527        147.09976807533778       5.0                      # Si
131  131  2    20.02290044896297        147.09976807533778       5.0                      # Si
132  132  2    30.034639663078245       147.09976807533778       5.0                      # Si
133  133  2    40.04580089792594        147.09976807533778       5.0                      # Si
134  134  2    50.05754011204122        147.09976807533778       5.0                      # Si
135  135  2    60.068701346888915       147.09976807533778       5.0                      # Si
136  136  2    70.08044056100418        147.09976807533778       5.0                      # Si
137  137  2    80.09160179585189        147.09976807533778       5.0                      # Si
138  138  2    90.10334100996717        147.09976807533778       5.0                      # Si
139  139  2    135.1547224966502        150.0126348033908        5.0                      # Si
140  140  2    145.1658837314979        150.0126348033908        5.0                      # Si
141  141  2    155.17762294561317       150.0126348033908        5.0                      # Si
142  142  2    165.18878418046089       150.0126348033908        5.0                      # Si
143  143  2    175.20052339457612       150.0126348033908        5.0                      # Si
144  144  2    185.21168462942384       150.0126348033908        5.0                      # Si
145  145  2    195.22342384353908       150.0126348033908        5.0                      # Si
146  146  2    205.2345850783868        150.0126348033908        5.0                      # Si
147  147  2    215.2463242925021        150.0126348033908        5.0                      # Si
148  148  2    225.25748552734976       150.0126348033908        5.0                      # Si
149  149  2    235.26922474146505       150.0126348033908        5.0                      # Si
150  150  2    245.28038597631277       150.0126348033908        5.0                      # Si
151  151  2    255.292125190428         150.0126348033908        5.0                      # Si
152  152  2    5.005580588757088        150.0126348033908        5.0                      # Si
153  153  2    15.017319860205884       150.0126348033908        5.0                      # Si
154  154  2    25.02848103772006        150.0126348033908        5.0                      # Si
155  155  2    35.04022030916886        150.0126348033908        5.0                      # Si
156  156  2    45.051381486683034       150.0126348033908        5.0                      # Si
157  157  2    55.0631207007983         150.0126348033908        5.0                      # Si
158  158  2    65.074281935646          150.0126348033908        5.0                      # Si
159  159  2    75.08602114976128        150.0126348033908        5.0                      # Si
160  160  2    85.09718238460897        150.0126348033908        5.0                      # Si
161  161  2    95.10892159872425        150.0126348033908        5.0                      # Si
162  162  2    105.12008283357194       150.0126348033908        5.0                      # Si
163  163  2    115.13182204768722       150.0126348033908        5.0                      # Si
164  164  2    125.14298328253491       150.0126348033908        5.0                      # Si
165  165  2    135.1547224966502        155.83836814482976       5.0                      # Si
166  166  2    145.1658837314979        155.83836814482976       5.0                      # Si
167  167  2    155.17762294561317       155.83836814482976       5.0                      # Si
168  168  2    165.18878418046089       155.83836814482976       5.0                      # Si
169  169  2    175.20052339457612       155.83836814482976       5.0                      # Si
170  170  2    185.21168462942384       155.83836814482976       5.0                      # Si
171  171  2    195.22342384353908       155.83836814482976       5.0                      # Si
172  172  2    205.2345850783868        155.83836814482976       5.0                      # Si
173  173  2    215.2463242925021        155.83836814482976       5.0                      # Si
174  174  2    225.25748552734976       155.83836814482976       5.0                      # Si
175  175  2    235.26922474146505       155.83836814482976       5.0                      # Si
176  176  2    245.28038597631277       155.83836814482976       5.0                      # Si
177  177  2    255.292125190428         155.83836814482976       5.0                      # Si
178  178  2    5.005580588757088        155.83836814482976       5.0                      # Si
179  179  2    15.017319860205884       155.83836814482976       5.0                      # Si
180  180  2    25.02848103772006        155.83836814482976       5.0                      # Si
181  181  2    35.04022030916886        155.83836814482976       5.0                      # Si
182  182  2    45.051381486683034       155.83836814482976       5.0                      # Si
183  183  2    55.0631207007983         155.83836814482976       5.0                      # Si
184  184  2    65.074281935646          155.83836814482976       5.0                      # Si
185  185  2    75.08602114976128        155.83836814482976       5.0                      # Si
186  186  2    85.09718238460897        155.83836814482976       5.0                      # Si
187  187  2    95.10892159872425        155.83836814482976       5.0                      # Si
188  188  2    105.12008283357194       155.83836814482976       5.0                      # Si
189  189  2    115.13182204768722       155.83836814482976       5.0                      # Si
190  190  2    125.14298328253491       155.83836814482976       5.0                      # Si
191  191  2    130.1491419078931        158.75123487288275       5.0                      # Si
192  192  2    140.16030314274082       158.75123487288275       5.0                      # Si
193  193  2    150.17204235685608       158.75123487288275       5.0                      # Si
194  194  2    160.18320353437025       158.75123487288275       5.0                      # Si
195  195  2    170.19494280581904       158.75123487288275       5.0                      # Si
196  196  2    180.20610398333324       158.75123487288275       5.0                      # Si
197  197  2    190.21784325478203       158.75123487288275       5.0                      # Si
198  198  2    200.2290044322962        158.75123487288275       5.0                      # Si
199  199  2    210.24074370374498       158.75123487288275       5.0                      # Si
200  200  2    220.25190488125915       158.75123487288275       5.0                      # Si
201  201  2    230.26364415270797       158.75123487288275       5.0                      # Si
202  202  2    240.2748053302221        158.75123487288275       5.0                      # Si
203  203  2    250.2865445443374        158.75123487288275       5.0                      # Si
204  204  2    260.2977057791851        158.75123487288275       5.0                      # Si
205  205  2    10.01173921411527        158.75123487288275       5.0                      # Si
206  206  2    20.02290044896297        158.75123487288275       5.0                      # Si
207  207  2    30.034639663078245       158.75123487288275       5.0                      # Si
208  208  2    40.04580089792594        158.75123487288275       5.0                      # Si
209  209  2    50.05754011204122        158.75123487288275       5.0                      # Si
210  210  2    60.068701346888915       158.75123487288275       5.0                      # Si
211  211  2    70.08044056100418        158.75123487288275       5.0                      # Si
212  212  2    80.09160179585189        158.75123487288275       5.0                      # Si
213  213  2    90.10334100996717        158.75123487288275       5.0                      # Si
214  214  2    100.11450224481487       158.75123487288275       5.0                      # Si
215  215  2    110.12624145893012       158.75123487288275       5.0                      # Si
216  216  2    120.13740269377783       158.75123487288275       5.0                      # Si
217  217  2    140.16030314274082       164.57696827165523       5.0                      # Si
218  218  2    150.17204235685608       164.57696827165523       5.0                      # Si
219  219  2    160.18320353437025       164.57696827165523       5.0                      # Si
220  220  2    170.19494280581904       164.57696827165523       5.0                      # Si
221  221  2    180.20610398333324       164.57696827165523       5.0                      # Si
222  222  2    190.21784325478203       164.57696827165523       5.0                      # Si
223  223  2    200.2290044322962        164.57696827165523       5.0                      # Si
224  224  2    210.24074370374498       164.57696827165523       5.0                      # Si
225  225  2    220.25190488125915       164.57696827165523       5.0                      # Si
226  226  2    230.26364415270797       164.57696827165523       5.0                      # Si
227  227  2    240.2748053302221        164.57696827165523       5.0                      # Si
228  228  2    250.2865445443374        164.57696827165523       5.0                      # Si
229  229  2    260.2977057791851        164.57696827165523       5.0                      # Si
230  230  2    10.01173921411527        164.57696827165523       5.0                      # Si
231  231  2    20.02290044896297        164.57696827165523       5.0                      # Si
232  232  2    30.034639663078245       164.57696827165523       5.0                      # Si
233  233  2    40.04580089792594        164.57696827165523       5.0                      # Si
234  234  2    50.05754011204122        164.57696827165523       5.0                      # Si
235  235  2    60.068701346888915       164.57696827165523       5.0                      # Si
236  236  2    70.08044056100418        164.57696827165523       5.0                      # Si
237  237  2    80.09160179585189        164.57696827165523       5.0                      # Si
238  238  2    90.10334100996717        164.57696827165523       5.0                      # Si
239  239  2    100.11450224481487       164.57696827165523       5.0                      # Si
240  240  2    110.12624145893012       164.57696827165523       5.0                      # Si
241  241  2    120.13740269377783       164.57696827165523       5.0                      # Si
242  242  2    130.1491419078931        164.57696827165523       5.0                      # Si
243  243  2    135.1547224966502        167.48983494237473       5.0                      # Si
244  244  2    145.1658837314979        167.48983494237473       5.0                      # Si
245  245  2    155.17762294561317       167.48983494237473       5.0                      # Si
246  246  2    165.18878418046089       167.48983494237473       5.0                      # Si
247  247  2    175.20052339457612       167.48983494237473       5.0                      # Si
248  248  2    185.21168462942384       167.48983494237473       5.0                      # Si
249  249  2    195.22342384353908       167.48983494237473       5.0                      # Si
250  250  2    205.2345850783868        167.48983494237473       5.0                      # Si
251  251  2    215.2463242925021        167.48983494237473       5.0                      # Si
252  252  2    225.25748552734976       167.48983494237473       5.0                      # Si
253  253  2    235.26922474146505       167.48983494237473       5.0                      # Si
254  254  2    245.28038597631277       167.48983494237473       5.0                      # Si
255  255  2    255.292125190428         167.48983494237473       5.0                      # Si
256  256  2    5.005580588757088        167.48983494237473       5.0                      # Si
257  257  2    15.017319860205884       167.48983494237473       5.0                      # Si
258  258  2    25.02848103772006        167.48983494237473       5.0                      # Si
259  259  2    35.04022030916886        167.48983494237473       5.0                      # Si
260  260  2    45.051381486683034       167.48983494237473       5.0                      # Si
261  261  2    55.0631207007983         167.48983494237473       5.0                      # Si
262  262  2    65.074281935646          167.48983494237473       5.0                      # Si
263  263  2    75.08602114976128        167.48983494237473       5.0                      # Si
264  264  2    85.09718238460897        167.48983494237473       5.0                      # Si
265  265  2    95.10892159872425        167.48983494237473       5.0                      # Si
266  266  2    105.12008283357194       167.48983494237473       5.0                      # Si
267  267  2    115.13182204768722       167.48983494237473       5.0                      # Si
268  268  2    125.14298328253491       167.48983494237473       5.0                      # Si
269  269  2    135.1547224966502        173.3155683411472        5.0                      # Si
270  270  2    145.1658837314979        173.3155683411472        5.0                      # Si
271  271  2    155.17762294561317       173.3155683411472        5.0                      # Si
272  272  2    165.18878418046089       173.3155683411472        5.0                      # Si
273  273  2    175.20052339457612       173.3155683411472        5.0                      # Si
274  274  2    185.21168462942384       173.3155683411472        5.0                      # Si
275  275  2    195.22342384353908       173.3155683411472        5.0                      # Si
276  276  2    205.2345850783868        173.3155683411472        5.0                      # Si
277  277  2    215.2463242925021        173.3155683411472        5.0                      # Si
278  278  2    225.25748552734976       173.3155683411472        5.0                      # Si
279  279  2    235.26922474146505       173.3155683411472        5.0                      # Si
280  280  2    245.28038597631277       173.3155683411472        5.0                      # Si
281  281  2    255.292125190428         173.3155683411472        5.0                      # Si
282  282  2    5.005580588757088        173.3155683411472        5.0                      # Si
283  283  2    15.017319860205884       173.3155683411472        5.0                      # Si
284  284  2    25.02848103772006        173.3155683411472        5.0                      # Si
285  285  2    35.04022030916886        173.3155683411472        5.0                      # Si
286  286  2    45.051381486683034       173.3155683411472        5.0                      # Si
287  287  2    55.0631207007983         173.3155683411472        5.0                      # Si
288  288  2    65.074281935646          173.3155683411472        5.0                      # Si
289  289  2    75.08602114976128        173.3155683411472        5.0                      # Si
290  290  2    85.09718238460897        173.3155683411472        5.0                      # Si
291  291  2    95.10892159872425        173.3155683411472        5.0                      # Si
292  292  2    105.12008283357194       173.3155683411472        5.0                      # Si
293  293  2    115.13182204768722       173.3155683411472        5.0                      # Si
294  294  2    125.14298328253491       173.3155683411472        5.0                      # Si
295  295  2    130.1491419078931        176.22843501186668       5.0                      # Si
296  296  2    140.16030314274082       176.22843501186668       5.0                      # Si
297  297  2    150.17204235685608       176.22843501186668       5.0                      # Si
298  298  2    160.18320353437025       176.22843501186668       5.0                      # Si
299  299  2    170.19494280581904       176.22843501186668       5.0                      # Si
300  300  2    180.20610398333324       176.22843501186668       5.0                      # Si
301  301  2    190.21784325478203       176.22843501186668       5.0                      # Si
302  302  2    200.2290044322962        176.22843501186668       5.0                      # Si
303  303  2    210.24074370374498       176.22843501186668       5.0                      # Si
304  304  2    220.25190488125915       176.22843501186668       5.0                      # Si
305  305  2    230.26364415270797       176.22843501186668       5.0                      # Si
306  306  2    240.2748053302221        176.22843501186668       5.0                      # Si
307  307  2    250.2865445443374        176.22843501186668       5.0                      # Si
308  308  2    260.2977057791851        176.22843501186668       5.0                      # Si
309  309  2    10.01173921411527        176.22843501186668       5.0                      # Si
310  310  2    20.02290044896297        176.22843501186668       5.0                      # Si
311  311  2    30.034639663078245       176.22843501186668       5.0                      # Si