DATA FILE Produced from netmc results (cf David Morley)
7740 atoms
25800 bonds
0 angles
0 dihedrals
0 impropers
2 atom types
0 bond types
2 bond types
0 angle types
0 dihedral types
0 improper types
0.00000 260.29782715425796 xlo xhi
0.00000 227.20360220812577 ylo yhi
0.0000 200.0000 zlo zhi

# Pair Coeffs
#
# 1  O
# 2  Si

# Bond Coeffs
# 
# 1  O-O
# 2  Si-O
# 3  O-O rep
# 4  Si-Si rep

 Masses

1 28.10000 # O 
2 32.01000 # Si

 Atoms # molecular

1    1    1    155.17762294561317       120.88396780952836       8.040569334518267        # O
2    2    1    165.18878418046089       120.88396780952836       8.040569334518267        # O
3    3    1    175.20052339457612       120.88396780952836       8.040569334518267        # O
4    4    1    185.21168462942384       120.88396780952836       8.040569334518267        # O
5    5    1    195.22342384353908       120.88396780952836       8.040569334518267        # O
6    6    1    205.2345850783868        120.88396780952836       8.040569334518267        # O
7    7    1    215.2463242925021        120.88396780952836       8.040569334518267        # O
8    8    1    225.25748552734976       120.88396780952836       8.040569334518267        # O
9    9    1    235.26922474146505       120.88396780952836       8.040569334518267        # O
10   10   1    245.28038597631277       120.88396780952836       8.040569334518267        # O
11   11   1    255.292125190428         120.88396780952836       8.040569334518267        # O
12   12   1    5.005580588757088        120.88396780952836       8.040569334518267        # O
13   13   1    15.017319860205884       120.88396780952836       8.040569334518267        # O
14   14   1    25.02848103772006        120.88396780952836       8.040569334518267        # O
15   15   1    35.04022030916886        120.88396780952836       8.040569334518267        # O
16   16   1    45.051381486683034       120.88396780952836       8.040569334518267        # O
17   17   1    55.0631207007983         120.88396780952836       8.040569334518267        # O
18   18   1    65.074281935646          120.88396780952836       8.040569334518267        # O
19   19   1    75.08602114976128        120.88396780952836       8.040569334518267        # O
20   20   1    85.09718238460897        120.88396780952836       8.040569334518267        # O
21   21   1    160.18320353437025       123.79683453758138       8.040569334518267        # O
22   22   1    170.19494280581904       123.79683453758138       8.040569334518267        # O
23   23   1    180.20610398333324       123.79683453758138       8.040569334518267        # O
24   24   1    190.21784325478203       123.79683453758138       8.040569334518267        # O
25   25   1    200.2290044322962        123.79683453758138       8.040569334518267        # O
26   26   1    210.24074370374498       123.79683453758138       8.040569334518267        # O
27   27   1    220.25190488125915       123.79683453758138       8.040569334518267        # O
28   28   1    230.26364415270797       123.79683453758138       8.040569334518267        # O
29   29   1    240.2748053302221        123.79683453758138       8.040569334518267        # O
30   30   1    250.2865445443374        123.79683453758138       8.040569334518267        # O
31   31   1    260.2977057791851        123.79683453758138       8.040569334518267        # O
32   32   1    10.01173921411527        123.79683453758138       8.040569334518267        # O
33   33   1    20.02290044896297        123.79683453758138       8.040569334518267        # O
34   34   1    30.034639663078245       123.79683453758138       8.040569334518267        # O
35   35   1    40.04580089792594        123.79683453758138       8.040569334518267        # O
36   36   1    50.05754011204122        123.79683453758138       8.040569334518267        # O
37   37   1    60.068701346888915       123.79683453758138       8.040569334518267        # O
38   38   1    70.08044056100418        123.79683453758138       8.040569334518267        # O
39   39   1    80.09160179585189        123.79683453758138       8.040569334518267        # O
40   40   1    160.18320353437025       129.62256793635385       8.040569334518267        # O
41   41   1    170.19494280581904       129.62256793635385       8.040569334518267        # O
42   42   1    180.20610398333324       129.62256793635385       8.040569334518267        # O
43   43   1    190.21784325478203       129.62256793635385       8.040569334518267        # O
44   44   1    200.2290044322962        129.62256793635385       8.040569334518267        # O
45   45   1    210.24074370374498       129.62256793635385       8.040569334518267        # O
46   46   1    220.25190488125915       129.62256793635385       8.040569334518267        # O
47   47   1    230.26364415270797       129.62256793635385       8.040569334518267        # O
48   48   1    240.2748053302221        129.62256793635385       8.040569334518267        # O
49   49   1    250.2865445443374        129.62256793635385       8.040569334518267        # O
50   50   1    260.2977057791851        129.62256793635385       8.040569334518267        # O
51   51   1    10.01173921411527        129.62256793635385       8.040569334518267        # O
52   52   1    20.02290044896297        129.62256793635385       8.040569334518267        # O
53   53   1    30.034639663078245       129.62256793635385       8.040569334518267        # O
54   54   1    40.04580089792594        129.62256793635385       8.040569334518267        # O
55   55   1    50.05754011204122        129.62256793635385       8.040569334518267        # O
56   56   1    60.068701346888915       129.62256793635385       8.040569334518267        # O
57   57   1    70.08044056100418        129.62256793635385       8.040569334518267        # O
58   58   1    80.09160179585189        129.62256793635385       8.040569334518267        # O
59   59   1    155.17762294561317       132.53543460707334       8.040569334518267        # O
60   60   1    165.18878418046089       132.53543460707334       8.040569334518267        # O
61   61   1    175.20052339457612       132.53543460707334       8.040569334518267        # O
62   62   1    185.21168462942384       132.53543460707334       8.040569334518267        # O
63   63   1    195.22342384353908       132.53543460707334       8.040569334518267        # O
64   64   1    205.2345850783868        132.53543460707334       8.040569334518267        # O
65   65   1    215.2463242925021        132.53543460707334       8.040569334518267        # O
66   66   1    225.25748552734976       132.53543460707334       8.040569334518267        # O
67   67   1    235.26922474146505       132.53543460707334       8.040569334518267        # O
68   68   1    245.28038597631277       132.53543460707334       8.040569334518267        # O
69   69   1    255.292125190428         132.53543460707334       8.040569334518267        # O
70   70   1    5.005580588757088        132.53543460707334       8.040569334518267        # O
71   71   1    15.017319860205884       132.53543460707334       8.040569334518267        # O
72   72   1    25.02848103772006        132.53543460707334       8.040569334518267        # O
73   73   1    35.04022030916886        132.53543460707334       8.040569334518267        # O
74   74   1    45.051381486683034       132.53543460707334       8.040569334518267        # O
75   75   1    55.0631207007983         132.53543460707334       8.040569334518267        # O
76   76   1    65.074281935646          132.53543460707334       8.040569334518267        # O
77   77   1    75.08602114976128        132.53543460707334       8.040569334518267        # O
78   78   1    85.09718238460897        132.53543460707334       8.040569334518267        # O
79   79   1    155.17762294561317       138.36116800584583       8.040569334518267        # O
80   80   1    165.18878418046089       138.36116800584583       8.040569334518267        # O
81   81   1    175.20052339457612       138.36116800584583       8.040569334518267        # O
82   82   1    185.21168462942384       138.36116800584583       8.040569334518267        # O
83   83   1    195.22342384353908       138.36116800584583       8.040569334518267        # O
84   84   1    205.2345850783868        138.36116800584583       8.040569334518267        # O
85   85   1    215.2463242925021        138.36116800584583       8.040569334518267        # O
86   86   1    225.25748552734976       138.36116800584583       8.040569334518267        # O
87   87   1    235.26922474146505       138.36116800584583       8.040569334518267        # O
88   88   1    245.28038597631277       138.36116800584583       8.040569334518267        # O
89   89   1    255.292125190428         138.36116800584583       8.040569334518267        # O
90   90   1    5.005580588757088        138.36116800584583       8.040569334518267        # O
91   91   1    15.017319860205884       138.36116800584583       8.040569334518267        # O
92   92   1    25.02848103772006        138.36116800584583       8.040569334518267        # O
93   93   1    35.04022030916886        138.36116800584583       8.040569334518267        # O
94   94   1    45.051381486683034       138.36116800584583       8.040569334518267        # O
95   95   1    55.0631207007983         138.36116800584583       8.040569334518267        # O
96   96   1    65.074281935646          138.36116800584583       8.040569334518267        # O
97   97   1    75.08602114976128        138.36116800584583       8.040569334518267        # O
98   98   1    85.09718238460897        138.36116800584583       8.040569334518267        # O
99   99   1    160.18320353437025       141.2740346765653        8.040569334518267        # O
100  100  1    170.19494280581904       141.2740346765653        8.040569334518267        # O
101  101  1    180.20610398333324       141.2740346765653        8.040569334518267        # O
102  102  1    190.21784325478203       141.2740346765653        8.040569334518267        # O
103  103  1    200.2290044322962        141.2740346765653        8.040569334518267        # O
104  104  1    210.24074370374498       141.2740346765653        8.040569334518267        # O
105  105  1    220.25190488125915       141.2740346765653        8.040569334518267        # O
106  106  1    230.26364415270797       141.2740346765653        8.040569334518267        # O
107  107  1    240.2748053302221        141.2740346765653        8.040569334518267        # O
108  108  1    250.2865445443374        141.2740346765653        8.040569334518267        # O
109  109  1    260.2977057791851        141.2740346765653        8.040569334518267        # O
110  110  1    10.01173921411527        141.2740346765653        8.040569334518267        # O
111  111  1    20.02290044896297        141.2740346765653        8.040569334518267        # O
112  112  1    30.034639663078245       141.2740346765653        8.040569334518267        # O
113  113  1    40.04580089792594        141.2740346765653        8.040569334518267        # O
114  114  1    50.05754011204122        141.2740346765653        8.040569334518267        # O
115  115  1    60.068701346888915       141.2740346765653        8.040569334518267        # O
116  116  1    70.08044056100418        141.2740346765653        8.040569334518267        # O
117  117  1    80.09160179585189        141.2740346765653        8.040569334518267        # O
118  118  1    150.17204235685608       147.09976807533778       8.040569334518267        # O
119  119  1    160.18320353437025       147.09976807533778       8.040569334518267        # O
120  120  1    170.19494280581904       147.09976807533778       8.040569334518267        # O
121  121  1    180.20610398333324       147.09976807533778       8.040569334518267        # O
122  122  1    190.21784325478203       147.09976807533778       8.040569334518267        # O
123  123  1    200.2290044322962        147.09976807533778       8.040569334518267        # O
124  124  1    210.24074370374498       147.09976807533778       8.040569334518267        # O
125  125  1    220.25190488125915       147.09976807533778       8.040569334518267        # O
126  126  1    230.26364415270797       147.09976807533778       8.040569334518267        # O
127  127  1    240.2748053302221        147.09976807533778       8.040569334518267        # O
128  128  1    250.2865445443374        147.09976807533778       8.040569334518267        # O
129  129  1    260.2977057791851        147.09976807533778       8.040569334518267        # O
130  130  1    10.01173921411527        147.09976807533778       8.040569334518267        # O
131  131  1    20.02290044896297        147.09976807533778       8.040569334518267        # O
132  132  1    30.034639663078245       147.09976807533778       8.040569334518267        # O
133  133  1    40.04580089792594        147.09976807533778       8.040569334518267        # O
134  134  1    50.05754011204122        147.09976807533778       8.040569334518267        # O
135  135  1    60.068701346888915       147.09976807533778       8.040569334518267        # O
136  136  1    70.08044056100418        147.09976807533778       8.040569334518267        # O
137  137  1    80.09160179585189        147.09976807533778       8.040569334518267        # O
138  138  1    90.10334100996717        147.09976807533778       8.040569334518267        # O
139  139  1    135.1547224966502        150.0126348033908        8.040569334518267        # O
140  140  1    145.1658837314979        150.0126348033908        8.040569334518267        # O
141  141  1    155.17762294561317       150.0126348033908        8.040569334518267        # O
142  142  1    165.18878418046089       150.0126348033908        8.040569334518267        # O
143  143  1    175.20052339457612       150.0126348033908        8.040569334518267        # O
144  144  1    185.21168462942384       150.0126348033908        8.040569334518267        # O
145  145  1    195.22342384353908       150.0126348033908        8.040569334518267        # O
146  146  1    205.2345850783868        150.0126348033908        8.040569334518267        # O
147  147  1    215.2463242925021        150.0126348033908        8.040569334518267        # O
148  148  1    225.25748552734976       150.0126348033908        8.040569334518267        # O
149  149  1    235.26922474146505       150.0126348033908        8.040569334518267        # O
150  150  1    245.28038597631277       150.0126348033908        8.040569334518267        # O
151  151  1    255.292125190428         150.0126348033908        8.040569334518267        # O
152  152  1    5.005580588757088        150.0126348033908        8.040569334518267        # O
153  153  1    15.017319860205884       150.0126348033908        8.040569334518267        # O
154  154  1    25.02848103772006        150.0126348033908        8.040569334518267        # O
155  155  1    35.04022030916886        150.0126348033908        8.040569334518267        # O
156  156  1    45.051381486683034       150.0126348033908        8.040569334518267        # O
157  157  1    55.0631207007983         150.0126348033908        8.040569334518267        # O
158  158  1    65.074281935646          150.0126348033908        8.040569334518267        # O
159  159  1    75.08602114976128        150.0126348033908        8.040569334518267        # O
160  160  1    85.09718238460897        150.0126348033908        8.040569334518267        # O
161  161  1    95.10892159872425        150.0126348033908        8.040569334518267        # O
162  162  1    105.12008283357194       150.0126348033908        8.040569334518267        # O
163  163  1    115.13182204768722       150.0126348033908        8.040569334518267        # O
164  164  1    125.14298328253491       150.0126348033908        8.040569334518267        # O
165  165  1    135.1547224966502        155.83836814482976       8.040569334518267        # O
166  166  1    145.1658837314979        155.83836814482976       8.040569334518267        # O
167  167  1    155.17762294561317       155.83836814482976       8.040569334518267        # O
168  168  1    165.18878418046089       155.83836814482976       8.040569334518267        # O
169  169  1    175.20052339457612       155.83836814482976       8.040569334518267        # O
170  170  1    185.21168462942384       155.83836814482976       8.040569334518267        # O
171  171  1    195.22342384353908       155.83836814482976       8.040569334518267        # O
172  172  1    205.2345850783868        155.83836814482976       8.040569334518267        # O
173  173  1    215.2463242925021        155.83836814482976       8.040569334518267        # O
174  174  1    225.25748552734976       155.83836814482976       8.040569334518267        # O
175  175  1    235.26922474146505       155.83836814482976       8.040569334518267        # O
176  176  1    245.28038597631277       155.83836814482976       8.040569334518267        # O
177  177  1    255.292125190428         155.83836814482976       8.040569334518267        # O
178  178  1    5.005580588757088        155.83836814482976       8.040569334518267        # O
179  179  1    15.017319860205884       155.83836814482976       8.040569334518267        # O
180  180  1    25.02848103772006        155.83836814482976       8.040569334518267        # O
181  181  1    35.04022030916886        155.83836814482976       8.040569334518267        # O
182  182  1    45.051381486683034       155.83836814482976       8.040569334518267        # O
183  183  1    55.0631207007983         155.83836814482976       8.040569334518267        # O
184  184  1    65.074281935646          155.83836814482976       8.040569334518267        # O
185  185  1    75.08602114976128        155.83836814482976       8.040569334518267        # O
186  186  1    85.09718238460897        155.83836814482976       8.040569334518267        # O
187  187  1    95.10892159872425        155.83836814482976       8.040569334518267        # O
188  188  1    105.12008283357194       155.83836814482976       8.040569334518267        # O
189  189  1    115.13182204768722       155.83836814482976       8.040569334518267        # O
190  190  1    125.14298328253491       155.83836814482976       8.040569334518267        # O
191  191  1    130.1491419078931        158.75123487288275       8.040569334518267        # O
192  192  1    140.16030314274082       158.75123487288275       8.040569334518267        # O
193  193  1    150.17204235685608       158.75123487288275       8.040569334518267        # O
194  194  1    160.18320353437025       158.75123487288275       8.040569334518267        # O
195  195  1    170.19494280581904       158.75123487288275       8.040569334518267        # O
196  196  1    180.20610398333324       158.75123487288275       8.040569334518267        # O
197  197  1    190.21784325478203       158.75123487288275       8.040569334518267        # O
198  198  1    200.2290044322962        158.75123487288275       8.040569334518267        # O
199  199  1    210.24074370374498       158.75123487288275       8.040569334518267        # O
200  200  1    220.25190488125915       158.75123487288275       8.040569334518267        # O
201  201  1    230.26364415270797       158.75123487288275       8.040569334518267        # O
202  202  1    240.2748053302221        158.75123487288275       8.040569334518267        # O
203  203  1    250.2865445443374        158.75123487288275       8.040569334518267        # O
204  204  1    260.2977057791851        158.75123487288275       8.040569334518267        # O
205  205  1    10.01173921411527        158.75123487288275       8.040569334518267        # O
206  206  1    20.02290044896297        158.75123487288275       8.040569334518267        # O
207  207  1    30.034639663078245       158.75123487288275       8.040569334518267        # O
208  208  1    40.04580089792594        158.75123487288275       8.040569334518267        # O
209  209  1    50.05754011204122        158.75123487288275       8.040569334518267        # O
210  210  1    60.068701346888915       158.75123487288275       8.040569334518267        # O
211  211  1    70.08044056100418        158.75123487288275       8.040569334518267        # O
212  212  1    80.09160179585189        158.75123487288275       8.040569334518267        # O
213  213  1    90.10334100996717        158.75123487288275       8.040569334518267        # O
214  214  1    100.11450224481487       158.75123487288275       8.040569334518267        # O
215  215  1    110.12624145893012       158.75123487288275       8.040569334518267        # O
216  216  1    120.13740269377783       158.75123487288275       8.040569334518267        # O
217  217  1    140.16030314274082       164.57696827165523       8.040569334518267        # O
218  218  1    150.17204235685608       164.57696827165523       8.040569334518267        # O
219  219  1    160.18320353437025       164.57696827165523       8.040569334518267        # O
220  220  1    170.19494280581904       164.57696827165523       8.040569334518267        # O
221  221  1    180.20610398333324       164.57696827165523       8.040569334518267        # O
222  222  1    190.21784325478203       164.57696827165523       8.040569334518267        # O
223  223  1    200.2290044322962        164.57696827165523       8.040569334518267        # O
224  224  1    210.24074370374498       164.57696827165523       8.040569334518267        # O
225  225  1    220.25190488125915       164.57696827165523       8.040569334518267        # O
226  226  1    230.26364415270797       164.57696827165523       8.040569334518267        # O
227  227  1    240.2748053302221        164.57696827165523       8.040569334518267        # O
228  228  1    250.2865445443374        164.57696827165523       8.040569334518267        # O
229  229  1    260.2977057791851        164.57696827165523       8.040569334518267        # O
230  230  1    10.01173921411527        164.57696827165523       8.040569334518267        # O
231  231  1    20.02290044896297        164.57696827165523       8.040569334518267        # O
232  232  1    30.034639663078245       164.57696827165523       8.040569334518267        # O
233  233  1    40.04580089792594        164.57696827165523       8.040569334518267        # O
234  234  1    50.05754011204122        164.57696827165523       8.040569334518267        # O
235  235  1    60.068701346888915       164.57696827165523       8.040569334518267        # O
236  236  1    70.08044056100418        164.57696827165523       8.040569334518267        # O
237  237  1    80.09160179585189        164.57696827165523       8.040569334518267        # O
238  238  1    90.10334100996717        164.57696827165523       8.040569334518267        # O
239  239  1    100.11450224481487       164.57696827165523       8.040569334518267        # O
240  240  1    110.12624145893012       164.57696827165523       8.040569334518267        # O
241  241  1    120.13740269377783       164.57696827165523       8.040569334518267        # O
242  242  1    130.1491419078931        164.57696827165523       8.040569334518267        # O
243  243  1    135.1547224966502        167.48983494237473       8.040569334518267        # O
244  244  1    145.1658837314979        167.48983494237473       8.040569334518267        # O
245  245  1    155.17762294561317       167.48983494237473       8.040569334518267        # O
246  246  1    165.18878418046089       167.48983494237473       8.040569334518267        # O
247  247  1    175.20052339457612       167.48983494237473       8.040569334518267        # O
248  248  1    185.21168462942384       167.48983494237473       8.040569334518267        # O
249  249  1    195.22342384353908       167.48983494237473       8.040569334518267        # O
250  250  1    205.2345850783868        167.48983494237473       8.040569334518267        # O
251  251  1    215.2463242925021        167.48983494237473       8.040569334518267        # O
252  252  1    225.25748552734976       167.48983494237473       8.040569334518267        # O
253  253  1    235.26922474146505       167.48983494237473       8.040569334518267        # O
254  254  1    245.28038597631277       167.48983494237473       8.040569334518267        # O
255  255  1    255.292125190428         167.48983494237473       8.040569334518267        # O
256  256  1    5.005580588757088        167.48983494237473       8.040569334518267        # O
257  257  1    15.017319860205884       167.48983494237473       8.040569334518267        # O
258  258  1    25.02848103772006        167.48983494237473       8.040569334518267        # O
259  259  1    35.04022030916886        167.48983494237473       8.040569334518267        # O
260  260  1    45.051381486683034       167.48983494237473       8.040569334518267        # O
261  261  1    55.0631207007983         167.48983494237473       8.040569334518267        # O
262  262  1    65.074281935646          167.48983494237473       8.040569334518267        # O
263  263  1    75.08602114976128        167.48983494237473       8.040569334518267        # O
264  264  1    85.09718238460897        167.48983494237473       8.040569334518267        # O
265  265  1    95.10892159872425        167.48983494237473       8.040569334518267        # O
266  266  1    105.12008283357194       167.48983494237473       8.040569334518267        # O
267  267  1    115.13182204768722       167.48983494237473       8.040569334518267        # O
268  268  1    125.14298328253491       167.48983494237473       8.040569334518267        # O
269  269  1    135.1547224966502        173.3155683411472        8.040569334518267        # O
270  270  1    145.1658837314979        173.3155683411472        8.040569334518267        # O
271  271  1    155.17762294561317       173.3155683411472        8.040569334518267        # O
272  272  1    165.18878418046089       173.3155683411472        8.040569334518267        # O
273  273  1    175.20052339457612       173.3155683411472        8.040569334518267        # O
274  274  1    185.21168462942384       173.3155683411472        8.040569334518267        # O
275  275  1    195.22342384353908       173.3155683411472        8.040569334518267        # O
276  276  1    205.2345850783868        173.3155683411472        8.040569334518267        # O
277  277  1    215.2463242925021        173.3155683411472        8.040569334518267        # O
278  278  1    225.25748552734976       173.3155683411472        8.040569334518267        # O
279  279  1    235.26922474146505       173.3155683411472        8.040569334518267        # O
280  280  1    245.28038597631277       173.3155683411472        8.040569334518267        # O
281  281  1    255.292125190428         173.3155683411472        8.040569334518267        # O
282  282  1    5.005580588757088        173.3155683411472        8.040569334518267        # O
283  283  1    15.017319860205884       173.3155683411472        8.040569334518267        # O
284  284  1    25.02848103772006        173.3155683411472        8.040569334518267        # O
285  285  1    35.04022030916886        173.3155683411472        8.040569334518267        # O
286  286  1    45.051381486683034       173.3155683411472        8.040569334518267        # O
287  287  1    55.0631207007983         173.3155683411472        8.040569334518267        # O
288  288  1    65.074281935646          173.3155683411472        8.040569334518267        # O
289  289  1    75.08602114976128        173.3155683411472        8.040569334518267        # O
290  290  1    85.09718238460897        173.3155683411472        8.040569334518267        # O
291  291  1    95.10892159872425        173.3155683411472        8.040569334518267        # O
292  292  1    105.12008283357194       173.3155683411472        8.040569334518267        # O
293  293  1    115.13182204768722       173.3155683411472        8.040569334518267        # O
294  294  1    125.14298328253491       173.3155683411472        8.040569334518267        # O
295  295  1    130.1491419078931        176.22843501186668       8.040569334518267        # O
296  296  1    140.16030314274082       176.22843501186668       8.040569334518267        # O
297  297  1    150.17204235685608       176.22843501186668       8.040569334518267        # O
298  298  1    160.18320353437025       176.22843501186668       8.040569334518267        # O
299  299  1    170.19494280581904       176.22843501186668       8.040569334518267        # O
300  300  1    180.20610398333324       176.22843501186668       8.040569334518267        # O
301  301  1    190.21784325478203       176.22843501186668       8.040569334518267        # O
302  302  1    200.2290044322962        176.22843501186668       8.040569334518267        # O
303  303  1    210.24074370374498       176.22843501186668       8.040569334518267        # O
304  304  1    220.25190488125915       176.22843501186668       8.040569334518267        # O
305  305  1    230.26364415270797       176.22843501186668       8.040569334518267        # O
306  306  1    240.2748053302221        176.22843501186668       8.040569334518267        # O
307  307  1    250.2865445443374        176.22843501186668       8.040569334518267        # O
308  308  1    260.2977057791851        176.22843501186668       8.040569334518267        # O
309  309  1    10.01173921411527        176.22843501186668       8.040569334518267        # O
310  310  1    20.02290044896297        176.22843501186668       8.040569334518267        # O
311  311  1    30.034639663078245       176.22843501186668       8.040569334518267        # O
312  312  1    40.04580089792594        176.22843501186668       8.040569334518267        # O
313  313  1    50.05754011204122        176.22843501186668       8.040569334518267        # O
314  314  1    60.068701346888915       176.22843501186668       8.040569334518267        # O