DATA FILE Produced from netmc results (cf David Morley)
508 atoms
1 atom types
0.00000 39.198173538428634 xlo xhi
0.00000 33.946613969584654 ylo yhi

 Masses

1 12.0000 # Si

 Atoms # molecular

1    1    20.82398456274221        18.741359795708192       0.0                     # C
2    1    23.273939981772113       18.741359795708192       0.0                     # C
3    1    25.723753956577134       18.741359795708192       0.0                     # C
4    1    28.17370937560704        18.741359795708192       0.0                     # C
5    1    30.62352335041206        18.741359795708192       0.0                     # C
6    1    33.07347876944196        18.741359795708192       0.0                     # C
7    1    35.52329274424699        18.741359795708192       0.0                     # C
8    1    37.97324816327689        18.741359795708192       0.0                     # C
9    1    1.224906987402513        18.741359795708192       0.0                     # C
10   1    3.674862406432412        18.741359795708192       0.0                     # C
11   1    6.124676381237438        18.741359795708192       0.0                     # C
12   1    8.574631800267337        18.741359795708192       0.0                     # C
13   1    11.024445775072362       18.741359795708192       0.0                     # C
14   1    13.474401194102263       18.741359795708192       0.0                     # C
15   1    15.924215168907287       18.741359795708192       0.0                     # C
16   1    18.374170587937186       18.741359795708192       0.0                     # C
17   1    22.0490329943696         19.44858092007454        0.0                     # C
18   1    24.498846969174625       19.44858092007454        0.0                     # C
19   1    26.948802388204527       19.44858092007454        0.0                     # C
20   1    29.398616363009552       19.44858092007454        0.0                     # C
21   1    31.84857178203945        19.44858092007454        0.0                     # C
22   1    34.298385756844475       19.44858092007454        0.0                     # C
23   1    36.74834117587437        19.44858092007454        0.0                     # C
24   1    39.198155150679405       19.44858092007454        0.0                     # C
25   1    2.449955419029899        19.44858092007454        0.0                     # C
26   1    4.899769393834926        19.44858092007454        0.0                     # C
27   1    7.349724812864824        19.44858092007454        0.0                     # C
28   1    9.799538787669851        19.44858092007454        0.0                     # C
29   1    12.249494206699747       19.44858092007454        0.0                     # C
30   1    14.699308181504776       19.44858092007454        0.0                     # C
31   1    17.149263600534674       19.44858092007454        0.0                     # C
32   1    22.0490329943696         20.863023168807235       0.0                     # C
33   1    24.498846969174625       20.863023168807235       0.0                     # C
34   1    26.948802388204527       20.863023168807235       0.0                     # C
35   1    29.398616363009552       20.863023168807235       0.0                     # C
36   1    31.84857178203945        20.863023168807235       0.0                     # C
37   1    34.298385756844475       20.863023168807235       0.0                     # C
38   1    36.74834117587437        20.863023168807235       0.0                     # C
39   1    39.198155150679405       20.863023168807235       0.0                     # C
40   1    2.449955419029899        20.863023168807235       0.0                     # C
41   1    4.899769393834926        20.863023168807235       0.0                     # C
42   1    7.349724812864824        20.863023168807235       0.0                     # C
43   1    9.799538787669851        20.863023168807235       0.0                     # C
44   1    12.249494206699747       20.863023168807235       0.0                     # C
45   1    14.699308181504776       20.863023168807235       0.0                     # C
46   1    17.149263600534674       20.863023168807235       0.0                     # C
47   1    23.273939981772113       21.57024429317358        0.0                     # C
48   1    25.723753956577134       21.57024429317358        0.0                     # C
49   1    28.17370937560704        21.57024429317358        0.0                     # C
50   1    30.62352335041206        21.57024429317358        0.0                     # C
51   1    33.07347876944196        21.57024429317358        0.0                     # C
52   1    35.52329274424699        21.57024429317358        0.0                     # C
53   1    37.97324816327689        21.57024429317358        0.0                     # C
54   1    1.224906987402513        21.57024429317358        0.0                     # C
55   1    3.674862406432412        21.57024429317358        0.0                     # C
56   1    6.124676381237438        21.57024429317358        0.0                     # C
57   1    8.574631800267337        21.57024429317358        0.0                     # C
58   1    11.024445775072362       21.57024429317358        0.0                     # C
59   1    13.474401194102263       21.57024429317358        0.0                     # C
60   1    15.924215168907287       21.57024429317358        0.0                     # C
61   1    20.82398456274221        22.984686541906278       0.0                     # C
62   1    23.273939981772113       22.984686541906278       0.0                     # C
63   1    25.723753956577134       22.984686541906278       0.0                     # C
64   1    28.17370937560704        22.984686541906278       0.0                     # C
65   1    30.62352335041206        22.984686541906278       0.0                     # C
66   1    33.07347876944196        22.984686541906278       0.0                     # C
67   1    35.52329274424699        22.984686541906278       0.0                     # C
68   1    37.97324816327689        22.984686541906278       0.0                     # C
69   1    1.224906987402513        22.984686541906278       0.0                     # C
70   1    3.674862406432412        22.984686541906278       0.0                     # C
71   1    6.124676381237438        22.984686541906278       0.0                     # C
72   1    8.574631800267337        22.984686541906278       0.0                     # C
73   1    11.024445775072362       22.984686541906278       0.0                     # C
74   1    13.474401194102263       22.984686541906278       0.0                     # C
75   1    15.924215168907287       22.984686541906278       0.0                     # C
76   1    18.374170587937186       22.984686541906278       0.0                     # C
77   1    19.599077575339702       23.691907666272623       0.0                     # C
78   1    22.0490329943696         23.691907666272623       0.0                     # C
79   1    24.498846969174625       23.691907666272623       0.0                     # C
80   1    26.948802388204527       23.691907666272623       0.0                     # C
81   1    29.398616363009552       23.691907666272623       0.0                     # C
82   1    31.84857178203945        23.691907666272623       0.0                     # C
83   1    34.298385756844475       23.691907666272623       0.0                     # C
84   1    36.74834117587437        23.691907666272623       0.0                     # C
85   1    39.198155150679405       23.691907666272623       0.0                     # C
86   1    2.449955419029899        23.691907666272623       0.0                     # C
87   1    4.899769393834926        23.691907666272623       0.0                     # C
88   1    7.349724812864824        23.691907666272623       0.0                     # C
89   1    9.799538787669851        23.691907666272623       0.0                     # C
90   1    12.249494206699747       23.691907666272623       0.0                     # C
91   1    14.699308181504776       23.691907666272623       0.0                     # C
92   1    17.149263600534674       23.691907666272623       0.0                     # C
93   1    22.0490329943696         25.106349915005318       0.0                     # C
94   1    24.498846969174625       25.106349915005318       0.0                     # C
95   1    26.948802388204527       25.106349915005318       0.0                     # C
96   1    29.398616363009552       25.106349915005318       0.0                     # C
97   1    31.84857178203945        25.106349915005318       0.0                     # C
98   1    34.298385756844475       25.106349915005318       0.0                     # C
99   1    36.74834117587437        25.106349915005318       0.0                     # C
100  1    39.198155150679405       25.106349915005318       0.0                     # C
101  1    2.449955419029899        25.106349915005318       0.0                     # C
102  1    4.899769393834926        25.106349915005318       0.0                     # C
103  1    7.349724812864824        25.106349915005318       0.0                     # C
104  1    9.799538787669851        25.106349915005318       0.0                     # C
105  1    12.249494206699747       25.106349915005318       0.0                     # C
106  1    14.699308181504776       25.106349915005318       0.0                     # C
107  1    17.149263600534674       25.106349915005318       0.0                     # C
108  1    19.599077575339702       25.106349915005318       0.0                     # C
109  1    20.82398456274221        25.813571039371663       0.0                     # C
110  1    23.273939981772113       25.813571039371663       0.0                     # C
111  1    25.723753956577134       25.813571039371663       0.0                     # C
112  1    28.17370937560704        25.813571039371663       0.0                     # C
113  1    30.62352335041206        25.813571039371663       0.0                     # C
114  1    33.07347876944196        25.813571039371663       0.0                     # C
115  1    35.52329274424699        25.813571039371663       0.0                     # C
116  1    37.97324816327689        25.813571039371663       0.0                     # C
117  1    1.224906987402513        25.813571039371663       0.0                     # C
118  1    3.674862406432412        25.813571039371663       0.0                     # C
119  1    6.124676381237438        25.813571039371663       0.0                     # C
120  1    8.574631800267337        25.813571039371663       0.0                     # C
121  1    11.024445775072362       25.813571039371663       0.0                     # C
122  1    13.474401194102263       25.813571039371663       0.0                     # C
123  1    15.924215168907287       25.813571039371663       0.0                     # C
124  1    18.374170587937186       25.813571039371663       0.0                     # C
125  1    20.82398456274221        27.22801328810436        0.0                     # C
126  1    23.273939981772113       27.22801328810436        0.0                     # C
127  1    25.723753956577134       27.22801328810436        0.0                     # C
128  1    28.17370937560704        27.22801328810436        0.0                     # C
129  1    30.62352335041206        27.22801328810436        0.0                     # C
130  1    33.07347876944196        27.22801328810436        0.0                     # C
131  1    35.52329274424699        27.22801328810436        0.0                     # C
132  1    37.97324816327689        27.22801328810436        0.0                     # C
133  1    1.224906987402513        27.22801328810436        0.0                     # C
134  1    3.674862406432412        27.22801328810436        0.0                     # C
135  1    6.124676381237438        27.22801328810436        0.0                     # C
136  1    8.574631800267337        27.22801328810436        0.0                     # C
137  1    11.024445775072362       27.22801328810436        0.0                     # C
138  1    13.474401194102263       27.22801328810436        0.0                     # C
139  1    15.924215168907287       27.22801328810436        0.0                     # C
140  1    18.374170587937186       27.22801328810436        0.0                     # C
141  1    19.599077575339702       27.935234412470702       0.0                     # C
142  1    22.0490329943696         27.935234412470702       0.0                     # C
143  1    24.498846969174625       27.935234412470702       0.0                     # C
144  1    26.948802388204527       27.935234412470702       0.0                     # C
145  1    29.398616363009552       27.935234412470702       0.0                     # C
146  1    31.84857178203945        27.935234412470702       0.0                     # C
147  1    34.298385756844475       27.935234412470702       0.0                     # C
148  1    36.74834117587437        27.935234412470702       0.0                     # C
149  1    39.198155150679405       27.935234412470702       0.0                     # C
150  1    2.449955419029899        27.935234412470702       0.0                     # C
151  1    4.899769393834926        27.935234412470702       0.0                     # C
152  1    7.349724812864824        27.935234412470702       0.0                     # C
153  1    9.799538787669851        27.935234412470702       0.0                     # C
154  1    12.249494206699747       27.935234412470702       0.0                     # C
155  1    14.699308181504776       27.935234412470702       0.0                     # C
156  1    17.149263600534674       27.935234412470702       0.0                     # C
157  1    22.0490329943696         29.3496766612034         0.0                     # C
158  1    24.498846969174625       29.3496766612034         0.0                     # C
159  1    26.948802388204527       29.3496766612034         0.0                     # C
160  1    29.398616363009552       29.3496766612034         0.0                     # C
161  1    31.84857178203945        29.3496766612034         0.0                     # C
162  1    34.298385756844475       29.3496766612034         0.0                     # C
163  1    36.74834117587437        29.3496766612034         0.0                     # C
164  1    39.198155150679405       29.3496766612034         0.0                     # C
165  1    2.449955419029899        29.3496766612034         0.0                     # C
166  1    4.899769393834926        29.3496766612034         0.0                     # C
167  1    7.349724812864824        29.3496766612034         0.0                     # C
168  1    9.799538787669851        29.3496766612034         0.0                     # C
169  1    12.249494206699747       29.3496766612034         0.0                     # C
170  1    14.699308181504776       29.3496766612034         0.0                     # C
171  1    17.149263600534674       29.3496766612034         0.0                     # C
172  1    19.599077575339702       29.3496766612034         0.0                     # C
173  1    20.82398456274221        30.056897785569745       0.0                     # C
174  1    23.273939981772113       30.056897785569745       0.0                     # C
175  1    25.723753956577134       30.056897785569745       0.0                     # C
176  1    28.17370937560704        30.056897785569745       0.0                     # C
177  1    30.62352335041206        30.056897785569745       0.0                     # C
178  1    33.07347876944196        30.056897785569745       0.0                     # C
179  1    35.52329274424699        30.056897785569745       0.0                     # C
180  1    37.97324816327689        30.056897785569745       0.0                     # C
181  1    1.224906987402513        30.056897785569745       0.0                     # C
182  1    3.674862406432412        30.056897785569745       0.0                     # C
183  1    6.124676381237438        30.056897785569745       0.0                     # C
184  1    8.574631800267337        30.056897785569745       0.0                     # C
185  1    11.024445775072362       30.056897785569745       0.0                     # C
186  1    13.474401194102263       30.056897785569745       0.0                     # C
187  1    15.924215168907287       30.056897785569745       0.0                     # C
188  1    18.374170587937186       30.056897785569745       0.0                     # C
189  1    20.82398456274221        31.47134003430244        0.0                     # C
190  1    23.273939981772113       31.47134003430244        0.0                     # C
191  1    25.723753956577134       31.47134003430244        0.0                     # C
192  1    28.17370937560704        31.47134003430244        0.0                     # C
193  1    30.62352335041206        31.47134003430244        0.0                     # C
194  1    33.07347876944196        31.47134003430244        0.0                     # C
195  1    35.52329274424699        31.47134003430244        0.0                     # C
196  1    37.97324816327689        31.47134003430244        0.0                     # C
197  1    1.224906987402513        31.47134003430244        0.0                     # C
198  1    3.674862406432412        31.47134003430244        0.0                     # C
199  1    6.124676381237438        31.47134003430244        0.0                     # C
200  1    8.574631800267337        31.47134003430244        0.0                     # C
201  1    11.024445775072362       31.47134003430244        0.0                     # C
202  1    13.474401194102263       31.47134003430244        0.0                     # C
203  1    15.924215168907287       31.47134003430244        0.0                     # C
204  1    18.374170587937186       31.47134003430244        0.0                     # C
205  1    19.599077575339702       32.178561158668785       0.0                     # C
206  1    22.0490329943696         32.178561158668785       0.0                     # C
207  1    24.498846969174625       32.178561158668785       0.0                     # C
208  1    26.948802388204527       32.178561158668785       0.0                     # C
209  1    29.398616363009552       32.178561158668785       0.0                     # C
210  1    31.84857178203945        32.178561158668785       0.0                     # C
211  1    34.298385756844475       32.178561158668785       0.0                     # C
212  1    36.74834117587437        32.178561158668785       0.0                     # C
213  1    39.198155150679405       32.178561158668785       0.0                     # C
214  1    2.449955419029899        32.178561158668785       0.0                     # C
215  1    4.899769393834926        32.178561158668785       0.0                     # C
216  1    7.349724812864824        32.178561158668785       0.0                     # C
217  1    9.799538787669851        32.178561158668785       0.0                     # C
218  1    12.249494206699747       32.178561158668785       0.0                     # C
219  1    14.699308181504776       32.178561158668785       0.0                     # C
220  1    17.149263600534674       32.178561158668785       0.0                     # C
221  1    22.0490329943696         33.59300340740148        0.0                     # C
222  1    24.498846969174625       33.59300340740148        0.0                     # C
223  1    26.948802388204527       33.59300340740148        0.0                     # C
224  1    29.398616363009552       33.59300340740148        0.0                     # C
225  1    31.84857178203945        33.59300340740148        0.0                     # C
226  1    34.298385756844475       33.59300340740148        0.0                     # C
227  1    36.74834117587437        33.59300340740148        0.0                     # C
228  1    39.198155150679405       33.59300340740148        0.0                     # C
229  1    2.449955419029899        33.59300340740148        0.0                     # C
230  1    4.899769393834926        33.59300340740148        0.0                     # C
231  1    7.349724812864824        33.59300340740148        0.0                     # C
232  1    9.799538787669851        33.59300340740148        0.0                     # C
233  1    12.249494206699747       33.59300340740148        0.0                     # C
234  1    14.699308181504776       33.59300340740148        0.0                     # C
235  1    17.149263600534674       33.59300340740148        0.0                     # C
236  1    19.599077575339702       33.59300340740148        0.0                     # C
237  1    20.82398456274221        0.3536105621831735       0.0                     # C
238  1    23.273939981772113       0.3536105621831735       0.0                     # C
239  1    25.723753956577134       0.3536105621831735       0.0                     # C
240  1    28.17370937560704        0.3536105621831735       0.0                     # C
241  1    30.62352335041206        0.3536105621831735       0.0                     # C
242  1    33.07347876944196        0.3536105621831735       0.0                     # C
243  1    35.52329274424699        0.3536105621831735       0.0                     # C
244  1    37.97324816327689        0.3536105621831735       0.0                     # C
245  1    1.224906987402513        0.3536105621831735       0.0                     # C
246  1    3.674862406432412        0.3536105621831735       0.0                     # C
247  1    6.124676381237438        0.3536105621831735       0.0                     # C
248  1    8.574631800267337        0.3536105621831735       0.0                     # C
249  1    11.024445775072362       0.3536105621831735       0.0                     # C
250  1    13.474401194102263       0.3536105621831735       0.0                     # C
251  1    15.924215168907287       0.3536105621831735       0.0                     # C
252  1    18.374170587937186       0.3536105621831735       0.0                     # C
253  1    20.82398456274221        1.7680528109158675       0.0                     # C
254  1    23.273939981772113       1.7680528109158675       0.0                     # C
255  1    25.723753956577134       1.7680528109158675       0.0                     # C
256  1    28.17370937560704        1.7680528109158675       0.0                     # C
257  1    30.62352335041206        1.7680528109158675       0.0                     # C
258  1    33.07347876944196        1.7680528109158675       0.0                     # C
259  1    35.52329274424699        1.7680528109158675       0.0                     # C
260  1    37.97324816327689        1.7680528109158675       0.0                     # C
261  1    1.224906987402513        1.7680528109158675       0.0                     # C
262  1    3.674862406432412        1.7680528109158675       0.0                     # C
263  1    6.124676381237438        1.7680528109158675       0.0                     # C
264  1    8.574631800267337        1.7680528109158675       0.0                     # C
265  1    11.024445775072362       1.7680528109158675       0.0                     # C
266  1    13.474401194102263       1.7680528109158675       0.0                     # C
267  1    15.924215168907287       1.7680528109158675       0.0                     # C
268  1    18.374170587937186       1.7680528109158675       0.0                     # C
269  1    19.599077575339702       2.4752739352822144       0.0                     # C
270  1    22.0490329943696         2.4752739352822144       0.0                     # C
271  1    24.498846969174625       2.4752739352822144       0.0                     # C
272  1    26.948802388204527       2.4752739352822144       0.0                     # C
273  1    29.398616363009552       2.4752739352822144       0.0                     # C
274  1    31.84857178203945        2.4752739352822144       0.0                     # C
275  1    34.298385756844475       2.4752739352822144       0.0                     # C
276  1    36.74834117587437        2.4752739352822144       0.0                     # C
277  1    39.198155150679405       2.4752739352822144       0.0                     # C
278  1    2.449955419029899        2.4752739352822144       0.0                     # C
279  1    4.899769393834926        2.4752739352822144       0.0                     # C
280  1    7.349724812864824        2.4752739352822144       0.0                     # C
281  1    9.799538787669851        2.4752739352822144       0.0                     # C
282  1    12.249494206699747       2.4752739352822144       0.0                     # C
283  1    14.699308181504776       2.4752739352822144       0.0                     # C
284  1    17.149263600534674       2.4752739352822144       0.0                     # C
285  1    22.0490329943696         3.889716184014908        0.0                     # C
286  1    24.498846969174625       3.889716184014908        0.0                     # C
287  1    26.948802388204527       3.889716184014908        0.0                     # C
288  1    29.398616363009552       3.889716184014908        0.0                     # C
289  1    31.84857178203945        3.889716184014908        0.0                     # C
290  1    34.298385756844475       3.889716184014908        0.0                     # C
291  1    36.74834117587437        3.889716184014908        0.0                     # C
292  1    39.198155150679405       3.889716184014908        0.0                     # C
293  1    2.449955419029899        3.889716184014908        0.0                     # C
294  1    4.899769393834926        3.889716184014908        0.0                     # C
295  1    7.349724812864824        3.889716184014908        0.0                     # C
296  1    9.799538787669851        3.889716184014908        0.0                     # C
297  1    12.249494206699747       3.889716184014908        0.0                     # C
298  1    14.699308181504776       3.889716184014908        0.0                     # C
299  1    17.149263600534674       3.889716184014908        0.0                     # C
300  1    19.599077575339702       3.889716184014908        0.0                     # C
301  1    20.82398456274221        4.596937308381255        0.0                     # C
302  1    23.273939981772113       4.596937308381255        0.0                     # C
303  1    25.723753956577134       4.596937308381255        0.0                     # C
304  1    28.17370937560704        4.596937308381255        0.0                     # C
305  1    30.62352335041206        4.596937308381255        0.0                     # C
306  1    33.07347876944196        4.596937308381255        0.0                     # C
307  1    35.52329274424699        4.596937308381255        0.0                     # C
308  1    37.97324816327689        4.596937308381255        0.0                     # C
309  1    1.224906987402513        4.596937308381255        0.0                     # C
310  1    3.674862406432412        4.596937308381255        0.0                     # C
311  1    6.124676381237438        4.596937308381255        0.0                     # C
312  1    8.574631800267337        4.596937308381255        0.0                     # C
313  1    11.024445775072362       4.596937308381255        0.0                     # C
314  1    13.474401194102263       4.596937308381255        0.0                     # C
315  1    15.924215168907287       4.596937308381255        0.0                     # C
316  1    18.374170587937186       4.596937308381255        0.0                     # C
317  1    20.82398456274221        6.0113795571139494       0.0                     # C
318  1    23.273939981772113       6.0113795571139494       0.0                     # C
319  1    25.723753956577134       6.0113795571139494       0.0                     # C
320  1    28.17370937560704        6.0113795571139494       0.0                     # C
321  1    30.62352335041206        6.0113795571139494       0.0                     # C
322  1    33.07347876944196        6.0113795571139494       0.0                     # C
323  1    35.52329274424699        6.0113795571139494       0.0                     # C
324  1    37.97324816327689        6.0113795571139494       0.0                     # C
325  1    1.224906987402513        6.0113795571139494       0.0                     # C
326  1    3.674862406432412        6.0113795571139494       0.0                     # C
327  1    6.124676381237438        6.0113795571139494       0.0                     # C
328  1    8.574631800267337        6.0113795571139494       0.0                     # C
329  1    11.024445775072362       6.0113795571139494       0.0                     # C
330  1    13.474401194102263       6.0113795571139494       0.0                     # C
331  1    15.924215168907287       6.0113795571139494       0.0                     # C
332  1    18.374170587937186       6.0113795571139494       0.0                     # C
333  1    19.599077575339702       6.718600681480296        0.0                     # C
334  1    22.0490329943696         6.718600681480296        0.0                     # C
335  1    24.498846969174625       6.718600681480296        0.0                     # C
336  1    26.948802388204527       6.718600681480296        0.0                     # C
337  1    29.398616363009552       6.718600681480296        0.0                     # C
338  1    31.84857178203945        6.718600681480296        0.0                     # C