LAMMPS (22 Jul 2025 - Update 1)
OMP_NUM_THREADS environment is not set. Defaulting to 1 thread.
  using 1 OpenMP thread(s) per MPI task
Reading data file ...
  orthogonal box = (0 0 -0.5) to (27.604348 23.906066 0.5)
  1 by 1 by 1 MPI processor grid
  reading atoms ...
  508 atoms
  scanning bonds ...
  3 = max bonds/atom
  scanning angles ...
  3 = max angles/atom
  orthogonal box = (0 0 -0.5) to (27.604348 23.906066 0.5)
  1 by 1 by 1 MPI processor grid
  reading bonds ...
  762 bonds
  reading angles ...
  1524 angles
Finding 1-2 1-3 1-4 neighbors ...
  special bond factors lj:    0        0        0       
  special bond factors coul:  0        0        0       
     3 = max # of 1-2 neighbors
     6 = max # of 1-3 neighbors
    18 = max # of 1-4 neighbors
    19 = max # of special neighbors
  special bonds CPU = 0.000 seconds
  read_data CPU = 0.011 seconds
Changing box ...
  orthogonal box = (-0.13774938 0 -0.5) to (27.742097 23.906066 0.5)
  orthogonal box = (-0.13774938 0.0075053716 -0.5) to (27.742097 23.898561 0.5)
Setting up sd style minimization ...
  Unit style    : electron
  Current step  : 0
WARNING: No pairwise cutoff or binsize set. Atom sorting therefore disabled. (src/atom.cpp:2499)
WARNING: Inconsistent image flags
For more information see https://docs.lammps.org/err0027 (src/domain.cpp:1052)
Per MPI rank memory allocation (min/avg/max) = 8.516 | 8.516 | 8.516 Mbytes
---
keywords: ['Step', 'PotEng', 'KinEng', 'E_pair', 'E_bond', 'TotEng', 'Volume', 'Temp', ]
data:
  - [0, 1.76988592151827, 0, 0, 1.29963933880319, 1.76988592151827, 666.078954102538, 0, ]
  - [197, 0.519224976203671, 0, 0, 0.159518982733384, 0.519224976203671, 666.078954102538, 0, ]
...
Loop time of 0.0351159 on 1 procs for 197 steps with 508 atoms

99.8% CPU use with 1 MPI tasks x 1 OpenMP threads

Minimization stats:
  Stopping criterion = energy tolerance
  Energy initial, next-to-last, final = 
      1.76988592151827  0.519225486260862  0.519224976203671
  Force two-norm initial, final = 3.3190566 0.0015773274
  Force max component initial, final = 1.3439236 0.00012130484
  Final line search alpha, max atom move = 1 0.00012130484
  Iterations, force evaluations = 197 391

MPI task timing breakdown:
Section |  min time  |  avg time  |  max time  |%varavg| %total
---------------------------------------------------------------
Pair    | 0          | 0          | 0          |   0.0 |  0.00
Bond    | 0.031194   | 0.031194   | 0.031194   |   0.0 | 88.83
Neigh   | 0          | 0          | 0          |   0.0 |  0.00
Comm    | 0.00060935 | 0.00060935 | 0.00060935 |   0.0 |  1.74
Output  | 0          | 0          | 0          |   0.0 |  0.00
Modify  | 0          | 0          | 0          |   0.0 |  0.00
Other   |            | 0.003313   |            |       |  9.43

Nlocal:            508 ave         508 max         508 min
Histogram: 1 0 0 0 0 0 0 0 0 0
Nghost:            349 ave         349 max         349 min
Histogram: 1 0 0 0 0 0 0 0 0 0
Neighs:              0 ave           0 max           0 min
Histogram: 1 0 0 0 0 0 0 0 0 0

Total # of neighbors = 0
Ave neighs/atom = 0
Ave special neighs/atom = 17.988189
Neighbor list builds = 0
Dangerous builds = 0
Total wall time: 0:00:00
