DATA FILE Produced from netmc results (cf David Morley)
1350 atoms
1 atom types
0.00000 63.90000000455368 xlo xhi
0.00000 55.33902330182563 ylo yhi

 Masses

1 12.0000 # Si

 Atoms # molecular

1    1    33.178866157938415       29.443198295202098       0.0                     # C
2    1    35.636486372265644       29.443198295202098       0.0                     # C
3    1    38.094248481524424       29.443198295202098       0.0                     # C
4    1    40.55186869585165        29.443198295202098       0.0                     # C
5    1    43.00963080511042        29.443198295202098       0.0                     # C
6    1    45.46725101943766        29.443198295202098       0.0                     # C
7    1    47.92501312869643        29.443198295202098       0.0                     # C
8    1    50.38263334302366        29.443198295202098       0.0                     # C
9    1    52.84039545228243        29.443198295202098       0.0                     # C
10   1    55.29801566660966        29.443198295202098       0.0                     # C
11   1    57.75577777586844        29.443198295202098       0.0                     # C
12   1    60.213397990195666       29.443198295202098       0.0                     # C
13   1    62.67116009945443        29.443198295202098       0.0                     # C
14   1    1.2288101071636153       29.443198295202098       0.0                     # C
15   1    3.6865722164223893       29.443198295202098       0.0                     # C
16   1    6.144192430749619        29.443198295202098       0.0                     # C
17   1    8.601954540008393        29.443198295202098       0.0                     # C
18   1    11.059574754335625       29.443198295202098       0.0                     # C
19   1    13.517336863594398       29.443198295202098       0.0                     # C
20   1    15.974957077921628       29.443198295202098       0.0                     # C
21   1    18.432719187180403       29.443198295202098       0.0                     # C
22   1    20.890339401507635       29.443198295202098       0.0                     # C
23   1    23.34810151076641        29.443198295202098       0.0                     # C
24   1    25.805721725093637       29.443198295202098       0.0                     # C
25   1    28.26348383435241        29.443198295202098       0.0                     # C
26   1    31.9500560507748         30.15267295291781        0.0                     # C
27   1    34.407676265102026       30.15267295291781        0.0                     # C
28   1    36.86543837436081        30.15267295291781        0.0                     # C
29   1    39.323058588688035       30.15267295291781        0.0                     # C
30   1    41.78082069794681        30.15267295291781        0.0                     # C
31   1    44.23844091227404        30.15267295291781        0.0                     # C
32   1    46.69620302153282        30.15267295291781        0.0                     # C
33   1    49.153823235860045       30.15267295291781        0.0                     # C
34   1    51.61158534511881        30.15267295291781        0.0                     # C
35   1    54.06920555944605        30.15267295291781        0.0                     # C
36   1    56.52696766870482        30.15267295291781        0.0                     # C
37   1    58.98458788303205        30.15267295291781        0.0                     # C
38   1    61.44234999229082        30.15267295291781        0.0                     # C
39   1    63.89997020661805        30.15267295291781        0.0                     # C
40   1    2.457762109258774        30.15267295291781        0.0                     # C
41   1    4.915382323586004        30.15267295291781        0.0                     # C
42   1    7.373144432844779        30.15267295291781        0.0                     # C
43   1    9.830764647172009        30.15267295291781        0.0                     # C
44   1    12.28852675643078        30.15267295291781        0.0                     # C
45   1    14.746146970758012       30.15267295291781        0.0                     # C
46   1    17.203909080016786       30.15267295291781        0.0                     # C
47   1    19.661529294344017       30.15267295291781        0.0                     # C
48   1    22.11929140360279        30.15267295291781        0.0                     # C
49   1    24.576911617930023       30.15267295291781        0.0                     # C
50   1    27.034673727188796       30.15267295291781        0.0                     # C
51   1    29.492293941516024       30.15267295291781        0.0                     # C
52   1    34.407676265102026       31.571622268349238       0.0                     # C
53   1    36.86543837436081        31.571622268349238       0.0                     # C
54   1    39.323058588688035       31.571622268349238       0.0                     # C
55   1    41.78082069794681        31.571622268349238       0.0                     # C
56   1    44.23844091227404        31.571622268349238       0.0                     # C
57   1    46.69620302153282        31.571622268349238       0.0                     # C
58   1    49.153823235860045       31.571622268349238       0.0                     # C
59   1    51.61158534511881        31.571622268349238       0.0                     # C
60   1    54.06920555944605        31.571622268349238       0.0                     # C
61   1    56.52696766870482        31.571622268349238       0.0                     # C
62   1    58.98458788303205        31.571622268349238       0.0                     # C
63   1    61.44234999229082        31.571622268349238       0.0                     # C
64   1    63.89997020661805        31.571622268349238       0.0                     # C
65   1    2.457762109258774        31.571622268349238       0.0                     # C
66   1    4.915382323586004        31.571622268349238       0.0                     # C
67   1    7.373144432844779        31.571622268349238       0.0                     # C
68   1    9.830764647172009        31.571622268349238       0.0                     # C
69   1    12.28852675643078        31.571622268349238       0.0                     # C
70   1    14.746146970758012       31.571622268349238       0.0                     # C
71   1    17.203909080016786       31.571622268349238       0.0                     # C
72   1    19.661529294344017       31.571622268349238       0.0                     # C
73   1    22.11929140360279        31.571622268349238       0.0                     # C
74   1    24.576911617930023       31.571622268349238       0.0                     # C
75   1    27.034673727188796       31.571622268349238       0.0                     # C
76   1    29.492293941516024       31.571622268349238       0.0                     # C
77   1    31.9500560507748         31.571622268349238       0.0                     # C
78   1    33.178866157938415       32.28109692606495        0.0                     # C
79   1    35.636486372265644       32.28109692606495        0.0                     # C
80   1    38.094248481524424       32.28109692606495        0.0                     # C
81   1    40.55186869585165        32.28109692606495        0.0                     # C
82   1    43.00963080511042        32.28109692606495        0.0                     # C
83   1    45.46725101943766        32.28109692606495        0.0                     # C
84   1    47.92501312869643        32.28109692606495        0.0                     # C
85   1    50.38263334302366        32.28109692606495        0.0                     # C
86   1    52.84039545228243        32.28109692606495        0.0                     # C
87   1    55.29801566660966        32.28109692606495        0.0                     # C
88   1    57.75577777586844        32.28109692606495        0.0                     # C
89   1    60.213397990195666       32.28109692606495        0.0                     # C
90   1    62.67116009945443        32.28109692606495        0.0                     # C
91   1    1.2288101071636153       32.28109692606495        0.0                     # C
92   1    3.6865722164223893       32.28109692606495        0.0                     # C
93   1    6.144192430749619        32.28109692606495        0.0                     # C
94   1    8.601954540008393        32.28109692606495        0.0                     # C
95   1    11.059574754335625       32.28109692606495        0.0                     # C
96   1    13.517336863594398       32.28109692606495        0.0                     # C
97   1    15.974957077921628       32.28109692606495        0.0                     # C
98   1    18.432719187180403       32.28109692606495        0.0                     # C
99   1    20.890339401507635       32.28109692606495        0.0                     # C
100  1    23.34810151076641        32.28109692606495        0.0                     # C
101  1    25.805721725093637       32.28109692606495        0.0                     # C
102  1    28.26348383435241        32.28109692606495        0.0                     # C
103  1    30.721104048679642       32.28109692606495        0.0                     # C
104  1    33.178866157938415       33.70004624149637        0.0                     # C
105  1    35.636486372265644       33.70004624149637        0.0                     # C
106  1    38.094248481524424       33.70004624149637        0.0                     # C
107  1    40.55186869585165        33.70004624149637        0.0                     # C
108  1    43.00963080511042        33.70004624149637        0.0                     # C
109  1    45.46725101943766        33.70004624149637        0.0                     # C
110  1    47.92501312869643        33.70004624149637        0.0                     # C
111  1    50.38263334302366        33.70004624149637        0.0                     # C
112  1    52.84039545228243        33.70004624149637        0.0                     # C
113  1    55.29801566660966        33.70004624149637        0.0                     # C
114  1    57.75577777586844        33.70004624149637        0.0                     # C
115  1    60.213397990195666       33.70004624149637        0.0                     # C
116  1    62.67116009945443        33.70004624149637        0.0                     # C
117  1    1.2288101071636153       33.70004624149637        0.0                     # C
118  1    3.6865722164223893       33.70004624149637        0.0                     # C
119  1    6.144192430749619        33.70004624149637        0.0                     # C
120  1    8.601954540008393        33.70004624149637        0.0                     # C
121  1    11.059574754335625       33.70004624149637        0.0                     # C
122  1    13.517336863594398       33.70004624149637        0.0                     # C
123  1    15.974957077921628       33.70004624149637        0.0                     # C
124  1    18.432719187180403       33.70004624149637        0.0                     # C
125  1    20.890339401507635       33.70004624149637        0.0                     # C
126  1    23.34810151076641        33.70004624149637        0.0                     # C
127  1    25.805721725093637       33.70004624149637        0.0                     # C
128  1    28.26348383435241        33.70004624149637        0.0                     # C
129  1    30.721104048679642       33.70004624149637        0.0                     # C
130  1    31.9500560507748         34.40952089921209        0.0                     # C
131  1    34.407676265102026       34.40952089921209        0.0                     # C
132  1    36.86543837436081        34.40952089921209        0.0                     # C
133  1    39.323058588688035       34.40952089921209        0.0                     # C
134  1    41.78082069794681        34.40952089921209        0.0                     # C
135  1    44.23844091227404        34.40952089921209        0.0                     # C
136  1    46.69620302153282        34.40952089921209        0.0                     # C
137  1    49.153823235860045       34.40952089921209        0.0                     # C
138  1    51.61158534511881        34.40952089921209        0.0                     # C
139  1    54.06920555944605        34.40952089921209        0.0                     # C
140  1    56.52696766870482        34.40952089921209        0.0                     # C
141  1    58.98458788303205        34.40952089921209        0.0                     # C
142  1    61.44234999229082        34.40952089921209        0.0                     # C
143  1    63.89997020661805        34.40952089921209        0.0                     # C
144  1    2.457762109258774        34.40952089921209        0.0                     # C
145  1    4.915382323586004        34.40952089921209        0.0                     # C
146  1    7.373144432844779        34.40952089921209        0.0                     # C
147  1    9.830764647172009        34.40952089921209        0.0                     # C
148  1    12.28852675643078        34.40952089921209        0.0                     # C
149  1    14.746146970758012       34.40952089921209        0.0                     # C
150  1    17.203909080016786       34.40952089921209        0.0                     # C
151  1    19.661529294344017       34.40952089921209        0.0                     # C
152  1    22.11929140360279        34.40952089921209        0.0                     # C
153  1    24.576911617930023       34.40952089921209        0.0                     # C
154  1    27.034673727188796       34.40952089921209        0.0                     # C
155  1    29.492293941516024       34.40952089921209        0.0                     # C
156  1    34.407676265102026       35.82847021464352        0.0                     # C
157  1    36.86543837436081        35.82847021464352        0.0                     # C
158  1    39.323058588688035       35.82847021464352        0.0                     # C
159  1    41.78082069794681        35.82847021464352        0.0                     # C
160  1    44.23844091227404        35.82847021464352        0.0                     # C
161  1    46.69620302153282        35.82847021464352        0.0                     # C
162  1    49.153823235860045       35.82847021464352        0.0                     # C
163  1    51.61158534511881        35.82847021464352        0.0                     # C
164  1    54.06920555944605        35.82847021464352        0.0                     # C
165  1    56.52696766870482        35.82847021464352        0.0                     # C
166  1    58.98458788303205        35.82847021464352        0.0                     # C
167  1    61.44234999229082        35.82847021464352        0.0                     # C
168  1    63.89997020661805        35.82847021464352        0.0                     # C
169  1    2.457762109258774        35.82847021464352        0.0                     # C
170  1    4.915382323586004        35.82847021464352        0.0                     # C
171  1    7.373144432844779        35.82847021464352        0.0                     # C
172  1    9.830764647172009        35.82847021464352        0.0                     # C
173  1    12.28852675643078        35.82847021464352        0.0                     # C
174  1    14.746146970758012       35.82847021464352        0.0                     # C
175  1    17.203909080016786       35.82847021464352        0.0                     # C
176  1    19.661529294344017       35.82847021464352        0.0                     # C
177  1    22.11929140360279        35.82847021464352        0.0                     # C
178  1    24.576911617930023       35.82847021464352        0.0                     # C
179  1    27.034673727188796       35.82847021464352        0.0                     # C
180  1    29.492293941516024       35.82847021464352        0.0                     # C
181  1    31.9500560507748         35.82847021464352        0.0                     # C
182  1    33.178866157938415       36.53794487235923        0.0                     # C
183  1    35.636486372265644       36.53794487235923        0.0                     # C
184  1    38.094248481524424       36.53794487235923        0.0                     # C
185  1    40.55186869585165        36.53794487235923        0.0                     # C
186  1    43.00963080511042        36.53794487235923        0.0                     # C
187  1    45.46725101943766        36.53794487235923        0.0                     # C
188  1    47.92501312869643        36.53794487235923        0.0                     # C
189  1    50.38263334302366        36.53794487235923        0.0                     # C
190  1    52.84039545228243        36.53794487235923        0.0                     # C
191  1    55.29801566660966        36.53794487235923        0.0                     # C
192  1    57.75577777586844        36.53794487235923        0.0                     # C
193  1    60.213397990195666       36.53794487235923        0.0                     # C
194  1    62.67116009945443        36.53794487235923        0.0                     # C
195  1    1.2288101071636153       36.53794487235923        0.0                     # C
196  1    3.6865722164223893       36.53794487235923        0.0                     # C
197  1    6.144192430749619        36.53794487235923        0.0                     # C
198  1    8.601954540008393        36.53794487235923        0.0                     # C
199  1    11.059574754335625       36.53794487235923        0.0                     # C
200  1    13.517336863594398       36.53794487235923        0.0                     # C
201  1    15.974957077921628       36.53794487235923        0.0                     # C
202  1    18.432719187180403       36.53794487235923        0.0                     # C
203  1    20.890339401507635       36.53794487235923        0.0                     # C
204  1    23.34810151076641        36.53794487235923        0.0                     # C
205  1    25.805721725093637       36.53794487235923        0.0                     # C
206  1    28.26348383435241        36.53794487235923        0.0                     # C
207  1    30.721104048679642       36.53794487235923        0.0                     # C
208  1    33.178866157938415       37.95689418779066        0.0                     # C
209  1    35.636486372265644       37.95689418779066        0.0                     # C
210  1    38.094248481524424       37.95689418779066        0.0                     # C
211  1    40.55186869585165        37.95689418779066        0.0                     # C
212  1    43.00963080511042        37.95689418779066        0.0                     # C
213  1    45.46725101943766        37.95689418779066        0.0                     # C
214  1    47.92501312869643        37.95689418779066        0.0                     # C
215  1    50.38263334302366        37.95689418779066        0.0                     # C
216  1    52.84039545228243        37.95689418779066        0.0                     # C
217  1    55.29801566660966        37.95689418779066        0.0                     # C
218  1    57.75577777586844        37.95689418779066        0.0                     # C
219  1    60.213397990195666       37.95689418779066        0.0                     # C
220  1    62.67116009945443        37.95689418779066        0.0                     # C
221  1    1.2288101071636153       37.95689418779066        0.0                     # C
222  1    3.6865722164223893       37.95689418779066        0.0                     # C
223  1    6.144192430749619        37.95689418779066        0.0                     # C
224  1    8.601954540008393        37.95689418779066        0.0                     # C
225  1    11.059574754335625       37.95689418779066        0.0                     # C
226  1    13.517336863594398       37.95689418779066        0.0                     # C
227  1    15.974957077921628       37.95689418779066        0.0                     # C
228  1    18.432719187180403       37.95689418779066        0.0                     # C
229  1    20.890339401507635       37.95689418779066        0.0                     # C
230  1    23.34810151076641        37.95689418779066        0.0                     # C
231  1    25.805721725093637       37.95689418779066        0.0                     # C
232  1    28.26348383435241        37.95689418779066        0.0                     # C
233  1    30.721104048679642       37.95689418779066        0.0                     # C
234  1    31.9500560507748         38.66636884550637        0.0                     # C
235  1    34.407676265102026       38.66636884550637        0.0                     # C
236  1    36.86543837436081        38.66636884550637        0.0                     # C
237  1    39.323058588688035       38.66636884550637        0.0                     # C
238  1    41.78082069794681        38.66636884550637        0.0                     # C
239  1    44.23844091227404        38.66636884550637        0.0                     # C
240  1    46.69620302153282        38.66636884550637        0.0                     # C
241  1    49.153823235860045       38.66636884550637        0.0                     # C
242  1    51.61158534511881        38.66636884550637        0.0                     # C
243  1    54.06920555944605        38.66636884550637        0.0                     # C
244  1    56.52696766870482        38.66636884550637        0.0                     # C
245  1    58.98458788303205        38.66636884550637        0.0                     # C
246  1    61.44234999229082        38.66636884550637        0.0                     # C
247  1    63.89997020661805        38.66636884550637        0.0                     # C
248  1    2.457762109258774        38.66636884550637        0.0                     # C
249  1    4.915382323586004        38.66636884550637        0.0                     # C
250  1    7.373144432844779        38.66636884550637        0.0                     # C
251  1    9.830764647172009        38.66636884550637        0.0                     # C
252  1    12.28852675643078        38.66636884550637        0.0                     # C
253  1    14.746146970758012       38.66636884550637        0.0                     # C
254  1    17.203909080016786       38.66636884550637        0.0                     # C
255  1    19.661529294344017       38.66636884550637        0.0                     # C
256  1    22.11929140360279        38.66636884550637        0.0                     # C
257  1    24.576911617930023       38.66636884550637        0.0                     # C
258  1    27.034673727188796       38.66636884550637        0.0                     # C
259  1    29.492293941516024       38.66636884550637        0.0                     # C
260  1    34.407676265102026       40.085318160937796       0.0                     # C
261  1    36.86543837436081        40.085318160937796       0.0                     # C
262  1    39.323058588688035       40.085318160937796       0.0                     # C
263  1    41.78082069794681        40.085318160937796       0.0                     # C
264  1    44.23844091227404        40.085318160937796       0.0                     # C
265  1    46.69620302153282        40.085318160937796       0.0                     # C
266  1    49.153823235860045       40.085318160937796       0.0                     # C
267  1    51.61158534511881        40.085318160937796       0.0                     # C
268  1    54.06920555944605        40.085318160937796       0.0                     # C
269  1    56.52696766870482        40.085318160937796       0.0                     # C
270  1    58.98458788303205        40.085318160937796       0.0                     # C
271  1    61.44234999229082        40.085318160937796       0.0                     # C
272  1    63.89997020661805        40.085318160937796       0.0                     # C
273  1    2.457762109258774        40.085318160937796       0.0                     # C
274  1    4.915382323586004        40.085318160937796       0.0                     # C
275  1    7.373144432844779        40.085318160937796       0.0                     # C
276  1    9.830764647172009        40.085318160937796       0.0                     # C
277  1    12.28852675643078        40.085318160937796       0.0                     # C
278  1    14.746146970758012       40.085318160937796       0.0                     # C
279  1    17.203909080016786       40.085318160937796       0.0                     # C
280  1    19.661529294344017       40.085318160937796       0.0                     # C
281  1    22.11929140360279        40.085318160937796       0.0                     # C
282  1    24.576911617930023       40.085318160937796       0.0                     # C
283  1    27.034673727188796       40.085318160937796       0.0                     # C
284  1    29.492293941516024       40.085318160937796       0.0                     # C
285  1    31.9500560507748         40.085318160937796       0.0                     # C
286  1    33.178866157938415       40.79479281865351        0.0                     # C
287  1    35.636486372265644       40.79479281865351        0.0                     # C
288  1    38.094248481524424       40.79479281865351        0.0                     # C
289  1    40.55186869585165        40.79479281865351        0.0                     # C
290  1    43.00963080511042        40.79479281865351        0.0                     # C
291  1    45.46725101943766        40.79479281865351        0.0                     # C
292  1    47.92501312869643        40.79479281865351        0.0                     # C
293  1    50.38263334302366        40.79479281865351        0.0                     # C
294  1    52.84039545228243        40.79479281865351        0.0                     # C
295  1    55.29801566660966        40.79479281865351        0.0                     # C
296  1    57.75577777586844        40.79479281865351        0.0                     # C
297  1    60.213397990195666       40.79479281865351        0.0                     # C
298  1    62.67116009945443        40.79479281865351        0.0                     # C
299  1    1.2288101071636153       40.79479281865351        0.0                     # C
300  1    3.6865722164223893       40.79479281865351        0.0                     # C
301  1    6.144192430749619        40.79479281865351        0.0                     # C
302  1    8.601954540008393        40.79479281865351        0.0                     # C
303  1    11.059574754335625       40.79479281865351        0.0                     # C
304  1    13.517336863594398       40.79479281865351        0.0                     # C
305  1    15.974957077921628       40.79479281865351        0.0                     # C
306  1    18.432719187180403       40.79479281865351        0.0                     # C
307  1    20.890339401507635       40.79479281865351        0.0                     # C
308  1    23.34810151076641        40.79479281865351        0.0                     # C
309  1    25.805721725093637       40.79479281865351        0.0                     # C
310  1    28.26348383435241        40.79479281865351        0.0                     # C
311  1    30.721104048679642       40.79479281865351        0.0                     # C
312  1    33.178866157938415       42.21374213408494        0.0                     # C
313  1    35.636486372265644       42.21374213408494        0.0                     # C
314  1    38.094248481524424       42.21374213408494        0.0                     # C
315  1    40.55186869585165        42.21374213408494        0.0                     # C
316  1    43.00963080511042        42.21374213408494        0.0                     # C
317  1    45.46725101943766        42.21374213408494        0.0                     # C
318  1    47.92501312869643        42.21374213408494        0.0                     # C
319  1    50.38263334302366        42.21374213408494        0.0                     # C
320  1    52.84039545228243        42.21374213408494        0.0                     # C
321  1    55.29801566660966        42.21374213408494        0.0                     # C
322  1    57.75577777586844        42.21374213408494        0.0                     # C
323  1    60.213397990195666       42.21374213408494        0.0                     # C
324  1    62.67116009945443        42.21374213408494        0.0                     # C
325  1    1.2288101071636153       42.21374213408494        0.0                     # C
326  1    3.6865722164223893       42.21374213408494        0.0                     # C
327  1    6.144192430749619        42.21374213408494        0.0                     # C
328  1    8.601954540008393        42.21374213408494        0.0                     # C
329  1    11.059574754335625       42.21374213408494        0.0                     # C
330  1    13.517336863594398       42.21374213408494        0.0                     # C
331  1    15.974957077921628       42.21374213408494        0.0                     # C
332  1    18.432719187180403       42.21374213408494        0.0                     # C
333  1    20.890339401507635       42.21374213408494        0.0                     # C
334  1    23.34810151076641        42.21374213408494        0.0                     # C
335  1    25.805721725093637       42.21374213408494        0.0                     # C
336  1    28.26348383435241        42.21374213408494        0.0                     # C
337  1    30.721104048679642       42.21374213408494        0.0                     # C
338  1    31.9500560507748         42.92321679180065        0.0                     # C