DATA FILE Produced from netmc results (cf David Morley)
3375 atoms
8100 bonds
0 angles
0 dihedrals
0 impropers
2 atom types
2 bond types
0 angle types
0 dihedral types
0 improper types
0.00000 258.00086343107404 xlo xhi
0.00000 223.4353019137071 ylo yhi

# Pair Coeffs
#
# 1  O
# 2  Si

# Bond Coeffs
# 
# 1  O-O
# 2  Si-O
# 3  O-O rep
# 4  Si-Si rep

 Masses

1 28.10000 # O 
2 32.01000 # Si

 Atoms # molecular

1    1    2    133.96206753993945       118.87903883870314       5.0                      # Si
2    2    2    143.88488658903026       118.87903883870314       5.0                      # Si
3    3    2    153.8082785491516        118.87903883870314       5.0                      # Si
4    4    2    163.7310975982424        118.87903883870314       5.0                      # Si
5    5    2    173.6544895583637        118.87903883870314       5.0                      # Si
6    6    2    183.57730860745454       118.87903883870314       5.0                      # Si
7    7    2    193.50070056757585       118.87903883870314       5.0                      # Si
8    8    2    203.42351961666662       118.87903883870314       5.0                      # Si
9    9    2    213.34691157678793       118.87903883870314       5.0                      # Si
10   10   2    223.26973062587874       118.87903883870314       5.0                      # Si
11   11   2    233.19312258600007       118.87903883870314       5.0                      # Si
12   12   2    243.11594163509088       118.87903883870314       5.0                      # Si
13   13   2    253.03933359521218       118.87903883870314       5.0                      # Si
14   14   2    4.9614095245453935       118.87903883870314       5.0                      # Si
15   15   2    14.88480148466673        118.87903883870314       5.0                      # Si
16   16   2    24.807620533757518       118.87903883870314       5.0                      # Si
17   17   2    34.73101249387885        118.87903883870314       5.0                      # Si
18   18   2    44.65383154296964        118.87903883870314       5.0                      # Si
19   19   2    54.57722350309098        118.87903883870314       5.0                      # Si
20   20   2    64.50004255218177        118.87903883870314       5.0                      # Si
21   21   2    74.4234345123031         118.87903883870314       5.0                      # Si
22   22   2    84.3462535613939         118.87903883870314       5.0                      # Si
23   23   2    94.26964552151523        118.87903883870314       5.0                      # Si
24   24   2    104.192464570606         118.87903883870314       5.0                      # Si
25   25   2    114.11585653072734       118.87903883870314       5.0                      # Si
26   26   2    129.00065801539407       121.74359399144298       5.0                      # Si
27   27   2    138.92347706448487       121.74359399144298       5.0                      # Si
28   28   2    148.8468690246062        121.74359399144298       5.0                      # Si
29   29   2    158.769688073697         121.74359399144298       5.0                      # Si
30   30   2    168.69308003381832       121.74359399144298       5.0                      # Si
31   31   2    178.6158990829091        121.74359399144298       5.0                      # Si
32   32   2    188.53929104303046       121.74359399144298       5.0                      # Si
33   33   2    198.46211009212124       121.74359399144298       5.0                      # Si
34   34   2    208.38550205224254       121.74359399144298       5.0                      # Si
35   35   2    218.30832110133335       121.74359399144298       5.0                      # Si
36   36   2    228.23171306145468       121.74359399144298       5.0                      # Si
37   37   2    238.1545321105455        121.74359399144298       5.0                      # Si
38   38   2    248.0779240706668        121.74359399144298       5.0                      # Si
39   39   2    258.0007431197576        121.74359399144298       5.0                      # Si
40   40   2    9.923391960121334        121.74359399144298       5.0                      # Si
41   41   2    19.846211009212126       121.74359399144298       5.0                      # Si
42   42   2    29.76960296933346        121.74359399144298       5.0                      # Si
43   43   2    39.69242201842425        121.74359399144298       5.0                      # Si
44   44   2    49.615813978545575       121.74359399144298       5.0                      # Si
45   45   2    59.53863302763637        121.74359399144298       5.0                      # Si
46   46   2    69.4620249877577         121.74359399144298       5.0                      # Si
47   47   2    79.3848440368485         121.74359399144298       5.0                      # Si
48   48   2    89.30823599696983        121.74359399144298       5.0                      # Si
49   49   2    99.23105504606062        121.74359399144298       5.0                      # Si
50   50   2    109.15444700618195       121.74359399144298       5.0                      # Si
51   51   2    119.07726605527274       121.74359399144298       5.0                      # Si
52   52   2    138.92347706448487       127.47270429692264       5.0                      # Si
53   53   2    148.8468690246062        127.47270429692264       5.0                      # Si
54   54   2    158.769688073697         127.47270429692264       5.0                      # Si
55   55   2    168.69308003381832       127.47270429692264       5.0                      # Si
56   56   2    178.6158990829091        127.47270429692264       5.0                      # Si
57   57   2    188.53929104303046       127.47270429692264       5.0                      # Si
58   58   2    198.46211009212124       127.47270429692264       5.0                      # Si
59   59   2    208.38550205224254       127.47270429692264       5.0                      # Si
60   60   2    218.30832110133335       127.47270429692264       5.0                      # Si
61   61   2    228.23171306145468       127.47270429692264       5.0                      # Si
62   62   2    238.1545321105455        127.47270429692264       5.0                      # Si
63   63   2    248.0779240706668        127.47270429692264       5.0                      # Si
64   64   2    258.0007431197576        127.47270429692264       5.0                      # Si
65   65   2    9.923391960121334        127.47270429692264       5.0                      # Si
66   66   2    19.846211009212126       127.47270429692264       5.0                      # Si
67   67   2    29.76960296933346        127.47270429692264       5.0                      # Si
68   68   2    39.69242201842425        127.47270429692264       5.0                      # Si
69   69   2    49.615813978545575       127.47270429692264       5.0                      # Si
70   70   2    59.53863302763637        127.47270429692264       5.0                      # Si
71   71   2    69.4620249877577         127.47270429692264       5.0                      # Si
72   72   2    79.3848440368485         127.47270429692264       5.0                      # Si
73   73   2    89.30823599696983        127.47270429692264       5.0                      # Si
74   74   2    99.23105504606062        127.47270429692264       5.0                      # Si
75   75   2    109.15444700618195       127.47270429692264       5.0                      # Si
76   76   2    119.07726605527274       127.47270429692264       5.0                      # Si
77   77   2    129.00065801539407       127.47270429692264       5.0                      # Si
78   78   2    133.96206753993945       130.33725944966247       5.0                      # Si
79   79   2    143.88488658903026       130.33725944966247       5.0                      # Si
80   80   2    153.8082785491516        130.33725944966247       5.0                      # Si
81   81   2    163.7310975982424        130.33725944966247       5.0                      # Si
82   82   2    173.6544895583637        130.33725944966247       5.0                      # Si
83   83   2    183.57730860745454       130.33725944966247       5.0                      # Si
84   84   2    193.50070056757585       130.33725944966247       5.0                      # Si
85   85   2    203.42351961666662       130.33725944966247       5.0                      # Si
86   86   2    213.34691157678793       130.33725944966247       5.0                      # Si
87   87   2    223.26973062587874       130.33725944966247       5.0                      # Si
88   88   2    233.19312258600007       130.33725944966247       5.0                      # Si
89   89   2    243.11594163509088       130.33725944966247       5.0                      # Si
90   90   2    253.03933359521218       130.33725944966247       5.0                      # Si
91   91   2    4.9614095245453935       130.33725944966247       5.0                      # Si
92   92   2    14.88480148466673        130.33725944966247       5.0                      # Si
93   93   2    24.807620533757518       130.33725944966247       5.0                      # Si
94   94   2    34.73101249387885        130.33725944966247       5.0                      # Si
95   95   2    44.65383154296964        130.33725944966247       5.0                      # Si
96   96   2    54.57722350309098        130.33725944966247       5.0                      # Si
97   97   2    64.50004255218177        130.33725944966247       5.0                      # Si
98   98   2    74.4234345123031         130.33725944966247       5.0                      # Si
99   99   2    84.3462535613939         130.33725944966247       5.0                      # Si
100  100  2    94.26964552151523        130.33725944966247       5.0                      # Si
101  101  2    104.192464570606         130.33725944966247       5.0                      # Si
102  102  2    114.11585653072734       130.33725944966247       5.0                      # Si
103  103  2    124.03867557981813       130.33725944966247       5.0                      # Si
104  104  2    133.96206753993945       136.06636975514215       5.0                      # Si
105  105  2    143.88488658903026       136.06636975514215       5.0                      # Si
106  106  2    153.8082785491516        136.06636975514215       5.0                      # Si
107  107  2    163.7310975982424        136.06636975514215       5.0                      # Si
108  108  2    173.6544895583637        136.06636975514215       5.0                      # Si
109  109  2    183.57730860745454       136.06636975514215       5.0                      # Si
110  110  2    193.50070056757585       136.06636975514215       5.0                      # Si
111  111  2    203.42351961666662       136.06636975514215       5.0                      # Si
112  112  2    213.34691157678793       136.06636975514215       5.0                      # Si
113  113  2    223.26973062587874       136.06636975514215       5.0                      # Si
114  114  2    233.19312258600007       136.06636975514215       5.0                      # Si
115  115  2    243.11594163509088       136.06636975514215       5.0                      # Si
116  116  2    253.03933359521218       136.06636975514215       5.0                      # Si
117  117  2    4.9614095245453935       136.06636975514215       5.0                      # Si
118  118  2    14.88480148466673        136.06636975514215       5.0                      # Si
119  119  2    24.807620533757518       136.06636975514215       5.0                      # Si
120  120  2    34.73101249387885        136.06636975514215       5.0                      # Si
121  121  2    44.65383154296964        136.06636975514215       5.0                      # Si
122  122  2    54.57722350309098        136.06636975514215       5.0                      # Si
123  123  2    64.50004255218177        136.06636975514215       5.0                      # Si
124  124  2    74.4234345123031         136.06636975514215       5.0                      # Si
125  125  2    84.3462535613939         136.06636975514215       5.0                      # Si
126  126  2    94.26964552151523        136.06636975514215       5.0                      # Si
127  127  2    104.192464570606         136.06636975514215       5.0                      # Si
128  128  2    114.11585653072734       136.06636975514215       5.0                      # Si
129  129  2    124.03867557981813       136.06636975514215       5.0                      # Si
130  130  2    129.00065801539407       138.930924907882         5.0                      # Si
131  131  2    138.92347706448487       138.930924907882         5.0                      # Si
132  132  2    148.8468690246062        138.930924907882         5.0                      # Si
133  133  2    158.769688073697         138.930924907882         5.0                      # Si
134  134  2    168.69308003381832       138.930924907882         5.0                      # Si
135  135  2    178.6158990829091        138.930924907882         5.0                      # Si
136  136  2    188.53929104303046       138.930924907882         5.0                      # Si
137  137  2    198.46211009212124       138.930924907882         5.0                      # Si
138  138  2    208.38550205224254       138.930924907882         5.0                      # Si
139  139  2    218.30832110133335       138.930924907882         5.0                      # Si
140  140  2    228.23171306145468       138.930924907882         5.0                      # Si
141  141  2    238.1545321105455        138.930924907882         5.0                      # Si
142  142  2    248.0779240706668        138.930924907882         5.0                      # Si
143  143  2    258.0007431197576        138.930924907882         5.0                      # Si
144  144  2    9.923391960121334        138.930924907882         5.0                      # Si
145  145  2    19.846211009212126       138.930924907882         5.0                      # Si
146  146  2    29.76960296933346        138.930924907882         5.0                      # Si
147  147  2    39.69242201842425        138.930924907882         5.0                      # Si
148  148  2    49.615813978545575       138.930924907882         5.0                      # Si
149  149  2    59.53863302763637        138.930924907882         5.0                      # Si
150  150  2    69.4620249877577         138.930924907882         5.0                      # Si
151  151  2    79.3848440368485         138.930924907882         5.0                      # Si
152  152  2    89.30823599696983        138.930924907882         5.0                      # Si
153  153  2    99.23105504606062        138.930924907882         5.0                      # Si
154  154  2    109.15444700618195       138.930924907882         5.0                      # Si
155  155  2    119.07726605527274       138.930924907882         5.0                      # Si
156  156  2    138.92347706448487       144.66003521336165       5.0                      # Si
157  157  2    148.8468690246062        144.66003521336165       5.0                      # Si
158  158  2    158.769688073697         144.66003521336165       5.0                      # Si
159  159  2    168.69308003381832       144.66003521336165       5.0                      # Si
160  160  2    178.6158990829091        144.66003521336165       5.0                      # Si
161  161  2    188.53929104303046       144.66003521336165       5.0                      # Si
162  162  2    198.46211009212124       144.66003521336165       5.0                      # Si
163  163  2    208.38550205224254       144.66003521336165       5.0                      # Si
164  164  2    218.30832110133335       144.66003521336165       5.0                      # Si
165  165  2    228.23171306145468       144.66003521336165       5.0                      # Si
166  166  2    238.1545321105455        144.66003521336165       5.0                      # Si
167  167  2    248.0779240706668        144.66003521336165       5.0                      # Si
168  168  2    258.0007431197576        144.66003521336165       5.0                      # Si
169  169  2    9.923391960121334        144.66003521336165       5.0                      # Si
170  170  2    19.846211009212126       144.66003521336165       5.0                      # Si
171  171  2    29.76960296933346        144.66003521336165       5.0                      # Si
172  172  2    39.69242201842425        144.66003521336165       5.0                      # Si
173  173  2    49.615813978545575       144.66003521336165       5.0                      # Si
174  174  2    59.53863302763637        144.66003521336165       5.0                      # Si
175  175  2    69.4620249877577         144.66003521336165       5.0                      # Si
176  176  2    79.3848440368485         144.66003521336165       5.0                      # Si
177  177  2    89.30823599696983        144.66003521336165       5.0                      # Si
178  178  2    99.23105504606062        144.66003521336165       5.0                      # Si
179  179  2    109.15444700618195       144.66003521336165       5.0                      # Si
180  180  2    119.07726605527274       144.66003521336165       5.0                      # Si
181  181  2    129.00065801539407       144.66003521336165       5.0                      # Si
182  182  2    133.96206753993945       147.52459036610148       5.0                      # Si
183  183  2    143.88488658903026       147.52459036610148       5.0                      # Si
184  184  2    153.8082785491516        147.52459036610148       5.0                      # Si
185  185  2    163.7310975982424        147.52459036610148       5.0                      # Si
186  186  2    173.6544895583637        147.52459036610148       5.0                      # Si
187  187  2    183.57730860745454       147.52459036610148       5.0                      # Si
188  188  2    193.50070056757585       147.52459036610148       5.0                      # Si
189  189  2    203.42351961666662       147.52459036610148       5.0                      # Si
190  190  2    213.34691157678793       147.52459036610148       5.0                      # Si
191  191  2    223.26973062587874       147.52459036610148       5.0                      # Si
192  192  2    233.19312258600007       147.52459036610148       5.0                      # Si
193  193  2    243.11594163509088       147.52459036610148       5.0                      # Si
194  194  2    253.03933359521218       147.52459036610148       5.0                      # Si
195  195  2    4.9614095245453935       147.52459036610148       5.0                      # Si
196  196  2    14.88480148466673        147.52459036610148       5.0                      # Si
197  197  2    24.807620533757518       147.52459036610148       5.0                      # Si
198  198  2    34.73101249387885        147.52459036610148       5.0                      # Si
199  199  2    44.65383154296964        147.52459036610148       5.0                      # Si
200  200  2    54.57722350309098        147.52459036610148       5.0                      # Si
201  201  2    64.50004255218177        147.52459036610148       5.0                      # Si
202  202  2    74.4234345123031         147.52459036610148       5.0                      # Si
203  203  2    84.3462535613939         147.52459036610148       5.0                      # Si
204  204  2    94.26964552151523        147.52459036610148       5.0                      # Si
205  205  2    104.192464570606         147.52459036610148       5.0                      # Si
206  206  2    114.11585653072734       147.52459036610148       5.0                      # Si
207  207  2    124.03867557981813       147.52459036610148       5.0                      # Si
208  208  2    133.96206753993945       153.25370067158116       5.0                      # Si
209  209  2    143.88488658903026       153.25370067158116       5.0                      # Si
210  210  2    153.8082785491516        153.25370067158116       5.0                      # Si
211  211  2    163.7310975982424        153.25370067158116       5.0                      # Si
212  212  2    173.6544895583637        153.25370067158116       5.0                      # Si
213  213  2    183.57730860745454       153.25370067158116       5.0                      # Si
214  214  2    193.50070056757585       153.25370067158116       5.0                      # Si
215  215  2    203.42351961666662       153.25370067158116       5.0                      # Si
216  216  2    213.34691157678793       153.25370067158116       5.0                      # Si
217  217  2    223.26973062587874       153.25370067158116       5.0                      # Si
218  218  2    233.19312258600007       153.25370067158116       5.0                      # Si
219  219  2    243.11594163509088       153.25370067158116       5.0                      # Si
220  220  2    253.03933359521218       153.25370067158116       5.0                      # Si
221  221  2    4.9614095245453935       153.25370067158116       5.0                      # Si
222  222  2    14.88480148466673        153.25370067158116       5.0                      # Si
223  223  2    24.807620533757518       153.25370067158116       5.0                      # Si
224  224  2    34.73101249387885        153.25370067158116       5.0                      # Si
225  225  2    44.65383154296964        153.25370067158116       5.0                      # Si
226  226  2    54.57722350309098        153.25370067158116       5.0                      # Si
227  227  2    64.50004255218177        153.25370067158116       5.0                      # Si
228  228  2    74.4234345123031         153.25370067158116       5.0                      # Si
229  229  2    84.3462535613939         153.25370067158116       5.0                      # Si
230  230  2    94.26964552151523        153.25370067158116       5.0                      # Si
231  231  2    104.192464570606         153.25370067158116       5.0                      # Si
232  232  2    114.11585653072734       153.25370067158116       5.0                      # Si
233  233  2    124.03867557981813       153.25370067158116       5.0                      # Si
234  234  2    129.00065801539407       156.118255824321         5.0                      # Si
235  235  2    138.92347706448487       156.118255824321         5.0                      # Si
236  236  2    148.8468690246062        156.118255824321         5.0                      # Si
237  237  2    158.769688073697         156.118255824321         5.0                      # Si
238  238  2    168.69308003381832       156.118255824321         5.0                      # Si
239  239  2    178.6158990829091        156.118255824321         5.0                      # Si
240  240  2    188.53929104303046       156.118255824321         5.0                      # Si
241  241  2    198.46211009212124       156.118255824321         5.0                      # Si
242  242  2    208.38550205224254       156.118255824321         5.0                      # Si
243  243  2    218.30832110133335       156.118255824321         5.0                      # Si
244  244  2    228.23171306145468       156.118255824321         5.0                      # Si
245  245  2    238.1545321105455        156.118255824321         5.0                      # Si
246  246  2    248.0779240706668        156.118255824321         5.0                      # Si
247  247  2    258.0007431197576        156.118255824321         5.0                      # Si
248  248  2    9.923391960121334        156.118255824321         5.0                      # Si
249  249  2    19.846211009212126       156.118255824321         5.0                      # Si
250  250  2    29.76960296933346        156.118255824321         5.0                      # Si
251  251  2    39.69242201842425        156.118255824321         5.0                      # Si
252  252  2    49.615813978545575       156.118255824321         5.0                      # Si
253  253  2    59.53863302763637        156.118255824321         5.0                      # Si
254  254  2    69.4620249877577         156.118255824321         5.0                      # Si
255  255  2    79.3848440368485         156.118255824321         5.0                      # Si
256  256  2    89.30823599696983        156.118255824321         5.0                      # Si
257  257  2    99.23105504606062        156.118255824321         5.0                      # Si
258  258  2    109.15444700618195       156.118255824321         5.0                      # Si
259  259  2    119.07726605527274       156.118255824321         5.0                      # Si
260  260  2    138.92347706448487       161.84736612980066       5.0                      # Si
261  261  2    148.8468690246062        161.84736612980066       5.0                      # Si
262  262  2    158.769688073697         161.84736612980066       5.0                      # Si
263  263  2    168.69308003381832       161.84736612980066       5.0                      # Si
264  264  2    178.6158990829091        161.84736612980066       5.0                      # Si
265  265  2    188.53929104303046       161.84736612980066       5.0                      # Si
266  266  2    198.46211009212124       161.84736612980066       5.0                      # Si
267  267  2    208.38550205224254       161.84736612980066       5.0                      # Si
268  268  2    218.30832110133335       161.84736612980066       5.0                      # Si
269  269  2    228.23171306145468       161.84736612980066       5.0                      # Si
270  270  2    238.1545321105455        161.84736612980066       5.0                      # Si
271  271  2    248.0779240706668        161.84736612980066       5.0                      # Si
272  272  2    258.0007431197576        161.84736612980066       5.0                      # Si
273  273  2    9.923391960121334        161.84736612980066       5.0                      # Si
274  274  2    19.846211009212126       161.84736612980066       5.0                      # Si
275  275  2    29.76960296933346        161.84736612980066       5.0                      # Si
276  276  2    39.69242201842425        161.84736612980066       5.0                      # Si
277  277  2    49.615813978545575       161.84736612980066       5.0                      # Si
278  278  2    59.53863302763637        161.84736612980066       5.0                      # Si
279  279  2    69.4620249877577         161.84736612980066       5.0                      # Si
280  280  2    79.3848440368485         161.84736612980066       5.0                      # Si
281  281  2    89.30823599696983        161.84736612980066       5.0                      # Si
282  282  2    99.23105504606062        161.84736612980066       5.0                      # Si
283  283  2    109.15444700618195       161.84736612980066       5.0                      # Si
284  284  2    119.07726605527274       161.84736612980066       5.0                      # Si
285  285  2    129.00065801539407       161.84736612980066       5.0                      # Si
286  286  2    133.96206753993945       164.7119212825405        5.0                      # Si
287  287  2    143.88488658903026       164.7119212825405        5.0                      # Si
288  288  2    153.8082785491516        164.7119212825405        5.0                      # Si
289  289  2    163.7310975982424        164.7119212825405        5.0                      # Si
290  290  2    173.6544895583637        164.7119212825405        5.0                      # Si
291  291  2    183.57730860745454       164.7119212825405        5.0                      # Si
292  292  2    193.50070056757585       164.7119212825405        5.0                      # Si
293  293  2    203.42351961666662       164.7119212825405        5.0                      # Si
294  294  2    213.34691157678793       164.7119212825405        5.0                      # Si
295  295  2    223.26973062587874       164.7119212825405        5.0                      # Si
296  296  2    233.19312258600007       164.7119212825405        5.0                      # Si
297  297  2    243.11594163509088       164.7119212825405        5.0                      # Si
298  298  2    253.03933359521218       164.7119212825405        5.0                      # Si
299  299  2    4.9614095245453935       164.7119212825405        5.0                      # Si
300  300  2    14.88480148466673        164.7119212825405        5.0                      # Si
301  301  2    24.807620533757518       164.7119212825405        5.0                      # Si
302  302  2    34.73101249387885        164.7119212825405        5.0                      # Si
303  303  2    44.65383154296964        164.7119212825405        5.0                      # Si
304  304  2    54.57722350309098        164.7119212825405        5.0                      # Si
305  305  2    64.50004255218177        164.7119212825405        5.0                      # Si
306  306  2    74.4234345123031         164.7119212825405        5.0                      # Si
307  307  2    84.3462535613939         164.7119212825405        5.0                      # Si
308  308  2    94.26964552151523        164.7119212825405        5.0                      # Si
309  309  2    104.192464570606         164.7119212825405        5.0                      # Si
310  310  2    114.11585653072734       164.7119212825405        5.0                      # Si
311  311  2    124.03867557981813       164.7119212825405        5.0                      # Si