DATA FILE Produced from netmc results (cf David Morley)
2064 atoms
6880 bonds
0 angles
0 dihedrals
0 impropers
2 atom types
0 bond types
2 bond types
0 angle types
0 dihedral types
0 improper types
0.00000 130.23673427815905 xlo xhi
0.00000 112.78832006970266 ylo yhi
0.0000 200.0000 zlo zhi

# Pair Coeffs
#
# 1  O
# 2  Si

# Bond Coeffs
# 
# 1  O-O
# 2  Si-O
# 3  O-O rep
# 4  Si-Si rep

 Masses

1 28.10000 # O 
2 32.01000 # Si

 Atoms # molecular

1    1    2    109.88731048724318       62.268551705148354       5.0                      # Si
2    2    2    109.88731048724318       62.268551705148354       11.081138669036534       # Si
3    3    2    118.02686758560674       62.268551705148354       5.0                      # Si
4    4    2    118.02686758560674       62.268551705148354       11.081138669036534       # Si
5    5    2    126.1668946353039        62.268551705148354       5.0                      # Si
6    6    2    126.1668946353039        62.268551705148354       11.081138669036534       # Si
7    7    2    4.069778549181771        62.268551705148354       5.0                      # Si
8    8    2    4.069778549181771        62.268551705148354       11.081138669036534       # Si
9    9    2    12.209805598878939       62.268551705148354       5.0                      # Si
10   10   2    12.209805598878939       62.268551705148354       11.081138669036534       # Si
11   11   2    20.34936269724248        62.268551705148354       5.0                      # Si
12   12   2    20.34936269724248        62.268551705148354       11.081138669036534       # Si
13   13   2    105.81753193806142       64.61830837326714        5.0                      # Si
14   14   2    105.81753193806142       64.61830837326714        11.081138669036534       # Si
15   15   2    113.95708903642495       64.61830837326714        5.0                      # Si
16   16   2    113.95708903642495       64.61830837326714        11.081138669036534       # Si
17   17   2    122.09711608612211       64.61830837326714        5.0                      # Si
18   18   2    122.09711608612211       64.61830837326714        11.081138669036534       # Si
19   19   2    130.23667318448568       64.61830837326714        5.0                      # Si
20   20   2    130.23667318448568       64.61830837326714        11.081138669036534       # Si
21   21   2    8.140027049697165        64.61830837326714        5.0                      # Si
22   22   2    8.140027049697165        64.61830837326714        11.081138669036534       # Si
23   23   2    16.27958414806071        64.61830837326714        5.0                      # Si
24   24   2    16.27958414806071        64.61830837326714        11.081138669036534       # Si
25   25   2    24.419611197757877       64.61830837326714        5.0                      # Si
26   26   2    24.419611197757877       64.61830837326714        11.081138669036534       # Si
27   27   2    105.81753193806142       69.31782170950476        5.0                      # Si
28   28   2    105.81753193806142       69.31782170950476        11.081138669036534       # Si
29   29   2    113.95708903642495       69.31782170950476        5.0                      # Si
30   30   2    113.95708903642495       69.31782170950476        11.081138669036534       # Si
31   31   2    122.09711608612211       69.31782170950476        5.0                      # Si
32   32   2    122.09711608612211       69.31782170950476        11.081138669036534       # Si
33   33   2    130.23667318448568       69.31782170950476        5.0                      # Si
34   34   2    130.23667318448568       69.31782170950476        11.081138669036534       # Si
35   35   2    8.140027049697165        69.31782170950476        5.0                      # Si
36   36   2    8.140027049697165        69.31782170950476        11.081138669036534       # Si
37   37   2    16.27958414806071        69.31782170950476        5.0                      # Si
38   38   2    16.27958414806071        69.31782170950476        11.081138669036534       # Si
39   39   2    24.419611197757877       69.31782170950476        5.0                      # Si
40   40   2    24.419611197757877       69.31782170950476        11.081138669036534       # Si
41   41   2    109.88731048724318       71.66757837762357        5.0                      # Si
42   42   2    109.88731048724318       71.66757837762357        11.081138669036534       # Si
43   43   2    118.02686758560674       71.66757837762357        5.0                      # Si
44   44   2    118.02686758560674       71.66757837762357        11.081138669036534       # Si
45   45   2    126.1668946353039        71.66757837762357        5.0                      # Si
46   46   2    126.1668946353039        71.66757837762357        11.081138669036534       # Si
47   47   2    4.069778549181771        71.66757837762357        5.0                      # Si
48   48   2    4.069778549181771        71.66757837762357        11.081138669036534       # Si
49   49   2    12.209805598878939       71.66757837762357        5.0                      # Si
50   50   2    12.209805598878939       71.66757837762357        11.081138669036534       # Si
51   51   2    20.34936269724248        71.66757837762357        5.0                      # Si
52   52   2    20.34936269724248        71.66757837762357        11.081138669036534       # Si
53   53   2    101.74728343754602       76.36709171386119        5.0                      # Si
54   54   2    101.74728343754602       76.36709171386119        11.081138669036534       # Si
55   55   2    109.88731048724318       76.36709171386119        5.0                      # Si
56   56   2    109.88731048724318       76.36709171386119        11.081138669036534       # Si
57   57   2    118.02686758560674       76.36709171386119        5.0                      # Si
58   58   2    118.02686758560674       76.36709171386119        11.081138669036534       # Si
59   59   2    126.1668946353039        76.36709171386119        5.0                      # Si
60   60   2    126.1668946353039        76.36709171386119        11.081138669036534       # Si
61   61   2    4.069778549181771        76.36709171386119        5.0                      # Si
62   62   2    4.069778549181771        76.36709171386119        11.081138669036534       # Si
63   63   2    12.209805598878939       76.36709171386119        5.0                      # Si
64   64   2    12.209805598878939       76.36709171386119        11.081138669036534       # Si
65   65   2    20.34936269724248        76.36709171386119        5.0                      # Si
66   66   2    20.34936269724248        76.36709171386119        11.081138669036534       # Si
67   67   2    28.489389746939644       76.36709171386119        5.0                      # Si
68   68   2    28.489389746939644       76.36709171386119        11.081138669036534       # Si
69   69   2    105.81753193806142       78.71684838197999        5.0                      # Si
70   70   2    105.81753193806142       78.71684838197999        11.081138669036534       # Si
71   71   2    113.95708903642495       78.71684838197999        5.0                      # Si
72   72   2    113.95708903642495       78.71684838197999        11.081138669036534       # Si
73   73   2    122.09711608612211       78.71684838197999        5.0                      # Si
74   74   2    122.09711608612211       78.71684838197999        11.081138669036534       # Si
75   75   2    130.23667318448568       78.71684838197999        5.0                      # Si
76   76   2    130.23667318448568       78.71684838197999        11.081138669036534       # Si
77   77   2    8.140027049697165        78.71684838197999        5.0                      # Si
78   78   2    8.140027049697165        78.71684838197999        11.081138669036534       # Si
79   79   2    16.27958414806071        78.71684838197999        5.0                      # Si
80   80   2    16.27958414806071        78.71684838197999        11.081138669036534       # Si
81   81   2    24.419611197757877       78.71684838197999        5.0                      # Si
82   82   2    24.419611197757877       78.71684838197999        11.081138669036534       # Si
83   83   2    97.67750488836425        83.41636171821759        5.0                      # Si
84   84   2    97.67750488836425        83.41636171821759        11.081138669036534       # Si
85   85   2    105.81753193806142       83.41636171821759        5.0                      # Si
86   86   2    105.81753193806142       83.41636171821759        11.081138669036534       # Si
87   87   2    113.95708903642495       83.41636171821759        5.0                      # Si
88   88   2    113.95708903642495       83.41636171821759        11.081138669036534       # Si
89   89   2    122.09711608612211       83.41636171821759        5.0                      # Si
90   90   2    122.09711608612211       83.41636171821759        11.081138669036534       # Si
91   91   2    130.23667318448568       83.41636171821759        5.0                      # Si
92   92   2    130.23667318448568       83.41636171821759        11.081138669036534       # Si
93   93   2    8.140027049697165        83.41636171821759        5.0                      # Si
94   94   2    8.140027049697165        83.41636171821759        11.081138669036534       # Si
95   95   2    16.27958414806071        83.41636171821759        5.0                      # Si
96   96   2    16.27958414806071        83.41636171821759        11.081138669036534       # Si
97   97   2    24.419611197757877       83.41636171821759        5.0                      # Si
98   98   2    24.419611197757877       83.41636171821759        11.081138669036534       # Si
99   99   2    32.55916829612142        83.41636171821759        5.0                      # Si
100  100  2    32.55916829612142        83.41636171821759        11.081138669036534       # Si
101  101  2    101.74728343754602       85.7661183863364         5.0                      # Si
102  102  2    101.74728343754602       85.7661183863364         11.081138669036534       # Si
103  103  2    109.88731048724318       85.7661183863364         5.0                      # Si
104  104  2    109.88731048724318       85.7661183863364         11.081138669036534       # Si
105  105  2    118.02686758560674       85.7661183863364         5.0                      # Si
106  106  2    118.02686758560674       85.7661183863364         11.081138669036534       # Si
107  107  2    126.1668946353039        85.7661183863364         5.0                      # Si
108  108  2    126.1668946353039        85.7661183863364         11.081138669036534       # Si
109  109  2    4.069778549181771        85.7661183863364         5.0                      # Si
110  110  2    4.069778549181771        85.7661183863364         11.081138669036534       # Si
111  111  2    12.209805598878939       85.7661183863364         5.0                      # Si
112  112  2    12.209805598878939       85.7661183863364         11.081138669036534       # Si
113  113  2    20.34936269724248        85.7661183863364         5.0                      # Si
114  114  2    20.34936269724248        85.7661183863364         11.081138669036534       # Si
115  115  2    28.489389746939644       85.7661183863364         5.0                      # Si
116  116  2    28.489389746939644       85.7661183863364         11.081138669036534       # Si
117  117  2    93.60772633918249        90.46563172257402        5.0                      # Si
118  118  2    93.60772633918249        90.46563172257402        11.081138669036534       # Si
119  119  2    101.74728343754602       90.46563172257402        5.0                      # Si
120  120  2    101.74728343754602       90.46563172257402        11.081138669036534       # Si
121  121  2    109.88731048724318       90.46563172257402        5.0                      # Si
122  122  2    109.88731048724318       90.46563172257402        11.081138669036534       # Si
123  123  2    118.02686758560674       90.46563172257402        5.0                      # Si
124  124  2    118.02686758560674       90.46563172257402        11.081138669036534       # Si
125  125  2    126.1668946353039        90.46563172257402        5.0                      # Si
126  126  2    126.1668946353039        90.46563172257402        11.081138669036534       # Si
127  127  2    4.069778549181771        90.46563172257402        5.0                      # Si
128  128  2    4.069778549181771        90.46563172257402        11.081138669036534       # Si
129  129  2    12.209805598878939       90.46563172257402        5.0                      # Si
130  130  2    12.209805598878939       90.46563172257402        11.081138669036534       # Si
131  131  2    20.34936269724248        90.46563172257402        5.0                      # Si
132  132  2    20.34936269724248        90.46563172257402        11.081138669036534       # Si
133  133  2    28.489389746939644       90.46563172257402        5.0                      # Si
134  134  2    28.489389746939644       90.46563172257402        11.081138669036534       # Si
135  135  2    36.62894684530319        90.46563172257402        5.0                      # Si
136  136  2    36.62894684530319        90.46563172257402        11.081138669036534       # Si
137  137  2    89.53794779000071        92.81538839069282        5.0                      # Si
138  138  2    89.53794779000071        92.81538839069282        11.081138669036534       # Si
139  139  2    97.67750488836425        92.81538839069282        5.0                      # Si
140  140  2    97.67750488836425        92.81538839069282        11.081138669036534       # Si
141  141  2    105.81753193806142       92.81538839069282        5.0                      # Si
142  142  2    105.81753193806142       92.81538839069282        11.081138669036534       # Si
143  143  2    113.95708903642495       92.81538839069282        5.0                      # Si
144  144  2    113.95708903642495       92.81538839069282        11.081138669036534       # Si
145  145  2    122.09711608612211       92.81538839069282        5.0                      # Si
146  146  2    122.09711608612211       92.81538839069282        11.081138669036534       # Si
147  147  2    130.23667318448568       92.81538839069282        5.0                      # Si
148  148  2    130.23667318448568       92.81538839069282        11.081138669036534       # Si
149  149  2    8.140027049697165        92.81538839069282        5.0                      # Si
150  150  2    8.140027049697165        92.81538839069282        11.081138669036534       # Si
151  151  2    16.27958414806071        92.81538839069282        5.0                      # Si
152  152  2    16.27958414806071        92.81538839069282        11.081138669036534       # Si
153  153  2    24.419611197757877       92.81538839069282        5.0                      # Si
154  154  2    24.419611197757877       92.81538839069282        11.081138669036534       # Si
155  155  2    32.55916829612142        92.81538839069282        5.0                      # Si
156  156  2    32.55916829612142        92.81538839069282        11.081138669036534       # Si
157  157  2    40.69919534581858        92.81538839069282        5.0                      # Si
158  158  2    40.69919534581858        92.81538839069282        11.081138669036534       # Si
159  159  2    81.39792074030353        97.51490172693042        5.0                      # Si
160  160  2    81.39792074030353        97.51490172693042        11.081138669036534       # Si
161  161  2    89.53794779000071        97.51490172693042        5.0                      # Si
162  162  2    89.53794779000071        97.51490172693042        11.081138669036534       # Si
163  163  2    97.67750488836425        97.51490172693042        5.0                      # Si
164  164  2    97.67750488836425        97.51490172693042        11.081138669036534       # Si
165  165  2    105.81753193806142       97.51490172693042        5.0                      # Si
166  166  2    105.81753193806142       97.51490172693042        11.081138669036534       # Si
167  167  2    113.95708903642495       97.51490172693042        5.0                      # Si
168  168  2    113.95708903642495       97.51490172693042        11.081138669036534       # Si
169  169  2    122.09711608612211       97.51490172693042        5.0                      # Si
170  170  2    122.09711608612211       97.51490172693042        11.081138669036534       # Si
171  171  2    130.23667318448568       97.51490172693042        5.0                      # Si
172  172  2    130.23667318448568       97.51490172693042        11.081138669036534       # Si
173  173  2    8.140027049697165        97.51490172693042        5.0                      # Si
174  174  2    8.140027049697165        97.51490172693042        11.081138669036534       # Si
175  175  2    16.27958414806071        97.51490172693042        5.0                      # Si
176  176  2    16.27958414806071        97.51490172693042        11.081138669036534       # Si
177  177  2    24.419611197757877       97.51490172693042        5.0                      # Si
178  178  2    24.419611197757877       97.51490172693042        11.081138669036534       # Si
179  179  2    32.55916829612142        97.51490172693042        5.0                      # Si
180  180  2    32.55916829612142        97.51490172693042        11.081138669036534       # Si
181  181  2    40.69919534581858        97.51490172693042        5.0                      # Si
182  182  2    40.69919534581858        97.51490172693042        11.081138669036534       # Si
183  183  2    48.83875244418213        97.51490172693042        5.0                      # Si
184  184  2    48.83875244418213        97.51490172693042        11.081138669036534       # Si
185  185  2    69.1881151414246         99.86465839504925        5.0                      # Si
186  186  2    69.1881151414246         99.86465839504925        11.081138669036534       # Si
187  187  2    77.32814219112177        99.86465839504925        5.0                      # Si
188  188  2    77.32814219112177        99.86465839504925        11.081138669036534       # Si
189  189  2    85.46769928948531        99.86465839504925        5.0                      # Si
190  190  2    85.46769928948531        99.86465839504925        11.081138669036534       # Si
191  191  2    93.60772633918249        99.86465839504925        5.0                      # Si
192  192  2    93.60772633918249        99.86465839504925        11.081138669036534       # Si
193  193  2    101.74728343754602       99.86465839504925        5.0                      # Si
194  194  2    101.74728343754602       99.86465839504925        11.081138669036534       # Si
195  195  2    109.88731048724318       99.86465839504925        5.0                      # Si
196  196  2    109.88731048724318       99.86465839504925        11.081138669036534       # Si
197  197  2    118.02686758560674       99.86465839504925        5.0                      # Si
198  198  2    118.02686758560674       99.86465839504925        11.081138669036534       # Si
199  199  2    126.1668946353039        99.86465839504925        5.0                      # Si
200  200  2    126.1668946353039        99.86465839504925        11.081138669036534       # Si
201  201  2    4.069778549181771        99.86465839504925        5.0                      # Si
202  202  2    4.069778549181771        99.86465839504925        11.081138669036534       # Si
203  203  2    12.209805598878939       99.86465839504925        5.0                      # Si
204  204  2    12.209805598878939       99.86465839504925        11.081138669036534       # Si
205  205  2    20.34936269724248        99.86465839504925        5.0                      # Si
206  206  2    20.34936269724248        99.86465839504925        11.081138669036534       # Si
207  207  2    28.489389746939644       99.86465839504925        5.0                      # Si
208  208  2    28.489389746939644       99.86465839504925        11.081138669036534       # Si
209  209  2    36.62894684530319        99.86465839504925        5.0                      # Si
210  210  2    36.62894684530319        99.86465839504925        11.081138669036534       # Si
211  211  2    44.76897389500036        99.86465839504925        5.0                      # Si
212  212  2    44.76897389500036        99.86465839504925        11.081138669036534       # Si
213  213  2    52.908530993363904       99.86465839504925        5.0                      # Si
214  214  2    52.908530993363904       99.86465839504925        11.081138669036534       # Si
215  215  2    61.04855804306106        99.86465839504925        5.0                      # Si
216  216  2    61.04855804306106        99.86465839504925        11.081138669036534       # Si
217  217  2    69.1881151414246         104.56417173128685       5.0                      # Si
218  218  2    69.1881151414246         104.56417173128685       11.081138669036534       # Si
219  219  2    77.32814219112177        104.56417173128685       5.0                      # Si
220  220  2    77.32814219112177        104.56417173128685       11.081138669036534       # Si
221  221  2    85.46769928948531        104.56417173128685       5.0                      # Si
222  222  2    85.46769928948531        104.56417173128685       11.081138669036534       # Si
223  223  2    93.60772633918249        104.56417173128685       5.0                      # Si
224  224  2    93.60772633918249        104.56417173128685       11.081138669036534       # Si
225  225  2    101.74728343754602       104.56417173128685       5.0                      # Si
226  226  2    101.74728343754602       104.56417173128685       11.081138669036534       # Si
227  227  2    109.88731048724318       104.56417173128685       5.0                      # Si
228  228  2    109.88731048724318       104.56417173128685       11.081138669036534       # Si
229  229  2    118.02686758560674       104.56417173128685       5.0                      # Si
230  230  2    118.02686758560674       104.56417173128685       11.081138669036534       # Si
231  231  2    126.1668946353039        104.56417173128685       5.0                      # Si
232  232  2    126.1668946353039        104.56417173128685       11.081138669036534       # Si
233  233  2    4.069778549181771        104.56417173128685       5.0                      # Si
234  234  2    4.069778549181771        104.56417173128685       11.081138669036534       # Si
235  235  2    12.209805598878939       104.56417173128685       5.0                      # Si
236  236  2    12.209805598878939       104.56417173128685       11.081138669036534       # Si
237  237  2    20.34936269724248        104.56417173128685       5.0                      # Si
238  238  2    20.34936269724248        104.56417173128685       11.081138669036534       # Si
239  239  2    28.489389746939644       104.56417173128685       5.0                      # Si
240  240  2    28.489389746939644       104.56417173128685       11.081138669036534       # Si
241  241  2    36.62894684530319        104.56417173128685       5.0                      # Si
242  242  2    36.62894684530319        104.56417173128685       11.081138669036534       # Si
243  243  2    44.76897389500036        104.56417173128685       5.0                      # Si
244  244  2    44.76897389500036        104.56417173128685       11.081138669036534       # Si
245  245  2    52.908530993363904       104.56417173128685       5.0                      # Si
246  246  2    52.908530993363904       104.56417173128685       11.081138669036534       # Si
247  247  2    61.04855804306106        104.56417173128685       5.0                      # Si
248  248  2    61.04855804306106        104.56417173128685       11.081138669036534       # Si
249  249  2    65.11833659224284        106.91392839940565       5.0                      # Si
250  250  2    65.11833659224284        106.91392839940565       11.081138669036534       # Si
251  251  2    73.25836364194001        106.91392839940565       5.0                      # Si
252  252  2    73.25836364194001        106.91392839940565       11.081138669036534       # Si
253  253  2    81.39792074030353        106.91392839940565       5.0                      # Si
254  254  2    81.39792074030353        106.91392839940565       11.081138669036534       # Si
255  255  2    89.53794779000071        106.91392839940565       5.0                      # Si
256  256  2    89.53794779000071        106.91392839940565       11.081138669036534       # Si
257  257  2    97.67750488836425        106.91392839940565       5.0                      # Si
258  258  2    97.67750488836425        106.91392839940565       11.081138669036534       # Si
259  259  2    105.81753193806142       106.91392839940565       5.0                      # Si
260  260  2    105.81753193806142       106.91392839940565       11.081138669036534       # Si
261  261  2    113.95708903642495       106.91392839940565       5.0                      # Si
262  262  2    113.95708903642495       106.91392839940565       11.081138669036534       # Si
263  263  2    122.09711608612211       106.91392839940565       5.0                      # Si
264  264  2    122.09711608612211       106.91392839940565       11.081138669036534       # Si
265  265  2    130.23667318448568       106.91392839940565       5.0                      # Si
266  266  2    130.23667318448568       106.91392839940565       11.081138669036534       # Si
267  267  2    8.140027049697165        106.91392839940565       5.0                      # Si
268  268  2    8.140027049697165        106.91392839940565       11.081138669036534       # Si
269  269  2    16.27958414806071        106.91392839940565       5.0                      # Si
270  270  2    16.27958414806071        106.91392839940565       11.081138669036534       # Si
271  271  2    24.419611197757877       106.91392839940565       5.0                      # Si
272  272  2    24.419611197757877       106.91392839940565       11.081138669036534       # Si
273  273  2    32.55916829612142        106.91392839940565       5.0                      # Si
274  274  2    32.55916829612142        106.91392839940565       11.081138669036534       # Si
275  275  2    40.69919534581858        106.91392839940565       5.0                      # Si
276  276  2    40.69919534581858        106.91392839940565       11.081138669036534       # Si
277  277  2    48.83875244418213        106.91392839940565       5.0                      # Si
278  278  2    48.83875244418213        106.91392839940565       11.081138669036534       # Si
279  279  2    56.97877949387929        106.91392839940565       5.0                      # Si
280  280  2    56.97877949387929        106.91392839940565       11.081138669036534       # Si
281  281  2    73.25836364194001        111.61344173564326       5.0                      # Si
282  282  2    73.25836364194001        111.61344173564326       11.081138669036534       # Si
283  283  2    81.39792074030353        111.61344173564326       5.0                      # Si
284  284  2    81.39792074030353        111.61344173564326       11.081138669036534       # Si
285  285  2    89.53794779000071        111.61344173564326       5.0                      # Si
286  286  2    89.53794779000071        111.61344173564326       11.081138669036534       # Si
287  287  2    97.67750488836425        111.61344173564326       5.0                      # Si
288  288  2    97.67750488836425        111.61344173564326       11.081138669036534       # Si
289  289  2    105.81753193806142       111.61344173564326       5.0                      # Si
290  290  2    105.81753193806142       111.61344173564326       11.081138669036534       # Si
291  291  2    113.95708903642495       111.61344173564326       5.0                      # Si
292  292  2    113.95708903642495       111.61344173564326       11.081138669036534       # Si
293  293  2    122.09711608612211       111.61344173564326       5.0                      # Si
294  294  2    122.09711608612211       111.61344173564326       11.081138669036534       # Si
295  295  2    130.23667318448568       111.61344173564326       5.0                      # Si
296  296  2    130.23667318448568       111.61344173564326       11.081138669036534       # Si
297  297  2    8.140027049697165        111.61344173564326       5.0                      # Si
298  298  2    8.140027049697165        111.61344173564326       11.081138669036534       # Si
299  299  2    16.27958414806071        111.61344173564326       5.0                      # Si
300  300  2    16.27958414806071        111.61344173564326       11.081138669036534       # Si
301  301  2    24.419611197757877       111.61344173564326       5.0                      # Si
302  302  2    24.419611197757877       111.61344173564326       11.081138669036534       # Si
303  303  2    32.55916829612142        111.61344173564326       5.0                      # Si
304  304  2    32.55916829612142        111.61344173564326       11.081138669036534       # Si
305  305  2    40.69919534581858        111.61344173564326       5.0                      # Si
306  306  2    40.69919534581858        111.61344173564326       11.081138669036534       # Si
307  307  2    48.83875244418213        111.61344173564326       5.0                      # Si
308  308  2    48.83875244418213        111.61344173564326       11.081138669036534       # Si
309  309  2    56.97877949387929        111.61344173564326       5.0                      # Si
310  310  2    56.97877949387929        111.61344173564326       11.081138669036534       # Si
311  311  2    65.11833659224284        111.61344173564326       5.0                      # Si