LAMMPS (23 Jun 2022 - Update 2)
OMP_NUM_THREADS environment is not set. Defaulting to 1 thread. (src/comm.cpp:98)
  using 1 OpenMP thread(s) per MPI task
Reading data file ...
  orthogonal box = (0 0 -0.5) to (22.715633 19.672316 0.5)
  1 by 1 by 1 MPI processor grid
  reading atoms ...
  344 atoms
  scanning bonds ...
  3 = max bonds/atom
  scanning angles ...
  3 = max angles/atom
  reading bonds ...
  516 bonds
  reading angles ...
  1032 angles
Finding 1-2 1-3 1-4 neighbors ...
  special bond factors lj:    0        0        0       
  special bond factors coul:  0        0        0       
     3 = max # of 1-2 neighbors
     6 = max # of 1-3 neighbors
    18 = max # of 1-4 neighbors
    18 = max # of special neighbors
  special bonds CPU = 0.000 seconds
  read_data CPU = 0.007 seconds
Changing box ...
  orthogonal box = (-1.4154354 0 -0.5) to (24.131069 19.672316 0.5)
  orthogonal box = (-1.4154354 -1.3292063 -0.5) to (24.131069 21.001522 0.5)
WARNING: Using 'neigh_modify every 1 delay 0 check yes' setting during minimization (src/min.cpp:187)
Setting up sd style minimization ...
  Unit style    : electron
  Current step  : 0
WARNING: No pairwise cutoff or binsize set. Atom sorting therefore disabled. (src/atom.cpp:2142)
WARNING: Inconsistent image flags (src/domain.cpp:819)
Per MPI rank memory allocation (min/avg/max) = 9.708 | 9.708 | 9.708 Mbytes
---
keywords: ['Step', 'PotEng', 'KinEng', 'E_pair', 'E_bond', 'TotEng', 'Volume', 'Temp', ]
data:
  - [0, 16.6199571163587, 0, 0, 10.8935091778971, 16.6199571163587, 570.472044399871, 0, ]
  - [192, 9.53942758102371, 0, 0, 4.01541941369921, 9.53942758102371, 570.472044399871, 0, ]
...
Loop time of 0.0255175 on 1 procs for 192 steps with 344 atoms

99.8% CPU use with 1 MPI tasks x 1 OpenMP threads

Minimization stats:
  Stopping criterion = energy tolerance
  Energy initial, next-to-last, final = 
      16.6199571163587    9.5394368322468   9.53942758102371
  Force two-norm initial, final = 7.7103546 0.012214613
  Force max component initial, final = 1.756319 0.0019444173
  Final line search alpha, max atom move = 1 0.0019444173
  Iterations, force evaluations = 192 370

MPI task timing breakdown:
Section |  min time  |  avg time  |  max time  |%varavg| %total
---------------------------------------------------------------
Pair    | 0          | 0          | 0          |   0.0 |  0.00
Bond    | 0.022081   | 0.022081   | 0.022081   |   0.0 | 86.53
Neigh   | 0          | 0          | 0          |   0.0 |  0.00
Comm    | 0.0008494  | 0.0008494  | 0.0008494  |   0.0 |  3.33
Output  | 0          | 0          | 0          |   0.0 |  0.00
Modify  | 0          | 0          | 0          |   0.0 |  0.00
Other   |            | 0.002587   |            |       | 10.14

Nlocal:            344 ave         344 max         344 min
Histogram: 1 0 0 0 0 0 0 0 0 0
Nghost:            346 ave         346 max         346 min
Histogram: 1 0 0 0 0 0 0 0 0 0
Neighs:              0 ave           0 max           0 min
Histogram: 1 0 0 0 0 0 0 0 0 0

Total # of neighbors = 0
Ave neighs/atom = 0
Ave special neighs/atom = 17.563953
Neighbor list builds = 0
Dangerous builds = 0
Total wall time: 0:00:00
