DATA FILE Produced from netmc results (cf David Morley)
2964 atoms
9880 bonds
0 angles
0 dihedrals
0 impropers
2 atom types
0 bond types
2 bond types
0 angle types
0 dihedral types
0 improper types
0.00000 156.06939642339552 xlo xhi
0.00000 135.16006167116606 ylo yhi
0.0000 200.0000 zlo zhi

# Pair Coeffs
#
# 1  O
# 2  Si

# Bond Coeffs
# 
# 1  O-O
# 2  Si-O
# 3  O-O rep
# 4  Si-Si rep

 Masses

1 28.10000 # O 
2 32.01000 # Si

 Atoms # molecular

1    1    2    102.42035256594421       74.61961738095626        5.0                      # Si
2    2    2    102.42035256594421       74.61961738095626        11.081138669036534       # Si
3    3    2    112.17496685013703       74.61961738095626        5.0                      # Si
4    4    2    112.17496685013703       74.61961738095626        11.081138669036534       # Si
5    5    2    121.92901796740617       74.61961738095626        5.0                      # Si
6    6    2    121.92901796740617       74.61961738095626        11.081138669036534       # Si
7    7    2    131.68363225159894       74.61961738095626        5.0                      # Si
8    8    2    131.68363225159894       74.61961738095626        11.081138669036534       # Si
9    9    2    141.43768336886808       74.61961738095626        5.0                      # Si
10   10   2    141.43768336886808       74.61961738095626        11.081138669036534       # Si
11   11   2    151.19229765306088       74.61961738095626        5.0                      # Si
12   12   2    151.19229765306088       74.61961738095626        11.081138669036534       # Si
13   13   2    4.877025558634575        74.61961738095626        5.0                      # Si
14   14   2    4.877025558634575        74.61961738095626        11.081138669036534       # Si
15   15   2    14.631639842827356       74.61961738095626        5.0                      # Si
16   16   2    14.631639842827356       74.61961738095626        11.081138669036534       # Si
17   17   2    24.385690960096504       74.61961738095626        5.0                      # Si
18   18   2    24.385690960096504       74.61961738095626        11.081138669036534       # Si
19   19   2    34.14030524428929        74.61961738095626        5.0                      # Si
20   20   2    34.14030524428929        74.61961738095626        11.081138669036534       # Si
21   21   2    43.89435636155844        74.61961738095626        5.0                      # Si
22   22   2    43.89435636155844        74.61961738095626        11.081138669036534       # Si
23   23   2    53.64897064575122        74.61961738095626        5.0                      # Si
24   24   2    53.64897064575122        74.61961738095626        11.081138669036534       # Si
25   25   2    97.54332700730966        77.43545199910555        5.0                      # Si
26   26   2    97.54332700730966        77.43545199910555        11.081138669036534       # Si
27   27   2    107.29794129150244       77.43545199910555        5.0                      # Si
28   28   2    107.29794129150244       77.43545199910555        11.081138669036534       # Si
29   29   2    117.05199240877158       77.43545199910555        5.0                      # Si
30   30   2    117.05199240877158       77.43545199910555        11.081138669036534       # Si
31   31   2    126.80660669296435       77.43545199910555        5.0                      # Si
32   32   2    126.80660669296435       77.43545199910555        11.081138669036534       # Si
33   33   2    136.56065781023352       77.43545199910555        5.0                      # Si
34   34   2    136.56065781023352       77.43545199910555        11.081138669036534       # Si
35   35   2    146.3152720944263        77.43545199910555        5.0                      # Si
36   36   2    146.3152720944263        77.43545199910555        11.081138669036534       # Si
37   37   2    156.06932321169543       77.43545199910555        5.0                      # Si
38   38   2    156.06932321169543       77.43545199910555        11.081138669036534       # Si
39   39   2    9.75461428419278         77.43545199910555        5.0                      # Si
40   40   2    9.75461428419278         77.43545199910555        11.081138669036534       # Si
41   41   2    19.50866540146193        77.43545199910555        5.0                      # Si
42   42   2    19.50866540146193        77.43545199910555        11.081138669036534       # Si
43   43   2    29.263279685654712       77.43545199910555        5.0                      # Si
44   44   2    29.263279685654712       77.43545199910555        11.081138669036534       # Si
45   45   2    39.01733080292386        77.43545199910555        5.0                      # Si
46   46   2    39.01733080292386        77.43545199910555        11.081138669036534       # Si
47   47   2    48.77194508711664        77.43545199910555        5.0                      # Si
48   48   2    48.77194508711664        77.43545199910555        11.081138669036534       # Si
49   49   2    58.52599620438579        77.43545199910555        5.0                      # Si
50   50   2    58.52599620438579        77.43545199910555        11.081138669036534       # Si
51   51   2    97.54332700730966        83.06712123540414        5.0                      # Si
52   52   2    97.54332700730966        83.06712123540414        11.081138669036534       # Si
53   53   2    107.29794129150244       83.06712123540414        5.0                      # Si
54   54   2    107.29794129150244       83.06712123540414        11.081138669036534       # Si
55   55   2    117.05199240877158       83.06712123540414        5.0                      # Si
56   56   2    117.05199240877158       83.06712123540414        11.081138669036534       # Si
57   57   2    126.80660669296435       83.06712123540414        5.0                      # Si
58   58   2    126.80660669296435       83.06712123540414        11.081138669036534       # Si
59   59   2    136.56065781023352       83.06712123540414        5.0                      # Si
60   60   2    136.56065781023352       83.06712123540414        11.081138669036534       # Si
61   61   2    146.3152720944263        83.06712123540414        5.0                      # Si
62   62   2    146.3152720944263        83.06712123540414        11.081138669036534       # Si
63   63   2    156.06932321169543       83.06712123540414        5.0                      # Si
64   64   2    156.06932321169543       83.06712123540414        11.081138669036534       # Si
65   65   2    9.75461428419278         83.06712123540414        5.0                      # Si
66   66   2    9.75461428419278         83.06712123540414        11.081138669036534       # Si
67   67   2    19.50866540146193        83.06712123540414        5.0                      # Si
68   68   2    19.50866540146193        83.06712123540414        11.081138669036534       # Si
69   69   2    29.263279685654712       83.06712123540414        5.0                      # Si
70   70   2    29.263279685654712       83.06712123540414        11.081138669036534       # Si
71   71   2    39.01733080292386        83.06712123540414        5.0                      # Si
72   72   2    39.01733080292386        83.06712123540414        11.081138669036534       # Si
73   73   2    48.77194508711664        83.06712123540414        5.0                      # Si
74   74   2    48.77194508711664        83.06712123540414        11.081138669036534       # Si
75   75   2    58.52599620438579        83.06712123540414        5.0                      # Si
76   76   2    58.52599620438579        83.06712123540414        11.081138669036534       # Si
77   77   2    82.9116871644823         85.88295585355343        5.0                      # Si
78   78   2    82.9116871644823         85.88295585355343        11.081138669036534       # Si
79   79   2    92.66630144867507        85.88295585355343        5.0                      # Si
80   80   2    92.66630144867507        85.88295585355343        11.081138669036534       # Si
81   81   2    102.42035256594421       85.88295585355343        5.0                      # Si
82   82   2    102.42035256594421       85.88295585355343        11.081138669036534       # Si
83   83   2    112.17496685013703       85.88295585355343        5.0                      # Si
84   84   2    112.17496685013703       85.88295585355343        11.081138669036534       # Si
85   85   2    121.92901796740617       85.88295585355343        5.0                      # Si
86   86   2    121.92901796740617       85.88295585355343        11.081138669036534       # Si
87   87   2    131.68363225159894       85.88295585355343        5.0                      # Si
88   88   2    131.68363225159894       85.88295585355343        11.081138669036534       # Si
89   89   2    141.43768336886808       85.88295585355343        5.0                      # Si
90   90   2    141.43768336886808       85.88295585355343        11.081138669036534       # Si
91   91   2    151.19229765306088       85.88295585355343        5.0                      # Si
92   92   2    151.19229765306088       85.88295585355343        11.081138669036534       # Si
93   93   2    4.877025558634575        85.88295585355343        5.0                      # Si
94   94   2    4.877025558634575        85.88295585355343        11.081138669036534       # Si
95   95   2    14.631639842827356       85.88295585355343        5.0                      # Si
96   96   2    14.631639842827356       85.88295585355343        11.081138669036534       # Si
97   97   2    24.385690960096504       85.88295585355343        5.0                      # Si
98   98   2    24.385690960096504       85.88295585355343        11.081138669036534       # Si
99   99   2    34.14030524428929        85.88295585355343        5.0                      # Si
100  100  2    34.14030524428929        85.88295585355343        11.081138669036534       # Si
101  101  2    43.89435636155844        85.88295585355343        5.0                      # Si
102  102  2    43.89435636155844        85.88295585355343        11.081138669036534       # Si
103  103  2    53.64897064575122        85.88295585355343        5.0                      # Si
104  104  2    53.64897064575122        85.88295585355343        11.081138669036534       # Si
105  105  2    63.40302176302037        85.88295585355343        5.0                      # Si
106  106  2    63.40302176302037        85.88295585355343        11.081138669036534       # Si
107  107  2    73.15763604721315        85.88295585355343        5.0                      # Si
108  108  2    73.15763604721315        85.88295585355343        11.081138669036534       # Si
109  109  2    82.9116871644823         91.51462508985202        5.0                      # Si
110  110  2    82.9116871644823         91.51462508985202        11.081138669036534       # Si
111  111  2    92.66630144867507        91.51462508985202        5.0                      # Si
112  112  2    92.66630144867507        91.51462508985202        11.081138669036534       # Si
113  113  2    102.42035256594421       91.51462508985202        5.0                      # Si
114  114  2    102.42035256594421       91.51462508985202        11.081138669036534       # Si
115  115  2    112.17496685013703       91.51462508985202        5.0                      # Si
116  116  2    112.17496685013703       91.51462508985202        11.081138669036534       # Si
117  117  2    121.92901796740617       91.51462508985202        5.0                      # Si
118  118  2    121.92901796740617       91.51462508985202        11.081138669036534       # Si
119  119  2    131.68363225159894       91.51462508985202        5.0                      # Si
120  120  2    131.68363225159894       91.51462508985202        11.081138669036534       # Si
121  121  2    141.43768336886808       91.51462508985202        5.0                      # Si
122  122  2    141.43768336886808       91.51462508985202        11.081138669036534       # Si
123  123  2    151.19229765306088       91.51462508985202        5.0                      # Si
124  124  2    151.19229765306088       91.51462508985202        11.081138669036534       # Si
125  125  2    4.877025558634575        91.51462508985202        5.0                      # Si
126  126  2    4.877025558634575        91.51462508985202        11.081138669036534       # Si
127  127  2    14.631639842827356       91.51462508985202        5.0                      # Si
128  128  2    14.631639842827356       91.51462508985202        11.081138669036534       # Si
129  129  2    24.385690960096504       91.51462508985202        5.0                      # Si
130  130  2    24.385690960096504       91.51462508985202        11.081138669036534       # Si
131  131  2    34.14030524428929        91.51462508985202        5.0                      # Si
132  132  2    34.14030524428929        91.51462508985202        11.081138669036534       # Si
133  133  2    43.89435636155844        91.51462508985202        5.0                      # Si
134  134  2    43.89435636155844        91.51462508985202        11.081138669036534       # Si
135  135  2    53.64897064575122        91.51462508985202        5.0                      # Si
136  136  2    53.64897064575122        91.51462508985202        11.081138669036534       # Si
137  137  2    63.40302176302037        91.51462508985202        5.0                      # Si
138  138  2    63.40302176302037        91.51462508985202        11.081138669036534       # Si
139  139  2    73.15763604721315        91.51462508985202        5.0                      # Si
140  140  2    73.15763604721315        91.51462508985202        11.081138669036534       # Si
141  141  2    78.03466160584772        94.33045970800131        5.0                      # Si
142  142  2    78.03466160584772        94.33045970800131        11.081138669036534       # Si
143  143  2    87.7892758900405         94.33045970800131        5.0                      # Si
144  144  2    87.7892758900405         94.33045970800131        11.081138669036534       # Si
145  145  2    97.54332700730966        94.33045970800131        5.0                      # Si
146  146  2    97.54332700730966        94.33045970800131        11.081138669036534       # Si
147  147  2    107.29794129150244       94.33045970800131        5.0                      # Si
148  148  2    107.29794129150244       94.33045970800131        11.081138669036534       # Si
149  149  2    117.05199240877158       94.33045970800131        5.0                      # Si
150  150  2    117.05199240877158       94.33045970800131        11.081138669036534       # Si
151  151  2    126.80660669296435       94.33045970800131        5.0                      # Si
152  152  2    126.80660669296435       94.33045970800131        11.081138669036534       # Si
153  153  2    136.56065781023352       94.33045970800131        5.0                      # Si
154  154  2    136.56065781023352       94.33045970800131        11.081138669036534       # Si
155  155  2    146.3152720944263        94.33045970800131        5.0                      # Si
156  156  2    146.3152720944263        94.33045970800131        11.081138669036534       # Si
157  157  2    156.06932321169543       94.33045970800131        5.0                      # Si
158  158  2    156.06932321169543       94.33045970800131        11.081138669036534       # Si
159  159  2    9.75461428419278         94.33045970800131        5.0                      # Si
160  160  2    9.75461428419278         94.33045970800131        11.081138669036534       # Si
161  161  2    19.50866540146193        94.33045970800131        5.0                      # Si
162  162  2    19.50866540146193        94.33045970800131        11.081138669036534       # Si
163  163  2    29.263279685654712       94.33045970800131        5.0                      # Si
164  164  2    29.263279685654712       94.33045970800131        11.081138669036534       # Si
165  165  2    39.01733080292386        94.33045970800131        5.0                      # Si
166  166  2    39.01733080292386        94.33045970800131        11.081138669036534       # Si
167  167  2    48.77194508711664        94.33045970800131        5.0                      # Si
168  168  2    48.77194508711664        94.33045970800131        11.081138669036534       # Si
169  169  2    58.52599620438579        94.33045970800131        5.0                      # Si
170  170  2    58.52599620438579        94.33045970800131        11.081138669036534       # Si
171  171  2    68.28061048857857        94.33045970800131        5.0                      # Si
172  172  2    68.28061048857857        94.33045970800131        11.081138669036534       # Si
173  173  2    87.7892758900405         99.96212894429989        5.0                      # Si
174  174  2    87.7892758900405         99.96212894429989        11.081138669036534       # Si
175  175  2    97.54332700730966        99.96212894429989        5.0                      # Si
176  176  2    97.54332700730966        99.96212894429989        11.081138669036534       # Si
177  177  2    107.29794129150244       99.96212894429989        5.0                      # Si
178  178  2    107.29794129150244       99.96212894429989        11.081138669036534       # Si
179  179  2    117.05199240877158       99.96212894429989        5.0                      # Si
180  180  2    117.05199240877158       99.96212894429989        11.081138669036534       # Si
181  181  2    126.80660669296435       99.96212894429989        5.0                      # Si
182  182  2    126.80660669296435       99.96212894429989        11.081138669036534       # Si
183  183  2    136.56065781023352       99.96212894429989        5.0                      # Si
184  184  2    136.56065781023352       99.96212894429989        11.081138669036534       # Si
185  185  2    146.3152720944263        99.96212894429989        5.0                      # Si
186  186  2    146.3152720944263        99.96212894429989        11.081138669036534       # Si
187  187  2    156.06932321169543       99.96212894429989        5.0                      # Si
188  188  2    156.06932321169543       99.96212894429989        11.081138669036534       # Si
189  189  2    9.75461428419278         99.96212894429989        5.0                      # Si
190  190  2    9.75461428419278         99.96212894429989        11.081138669036534       # Si
191  191  2    19.50866540146193        99.96212894429989        5.0                      # Si
192  192  2    19.50866540146193        99.96212894429989        11.081138669036534       # Si
193  193  2    29.263279685654712       99.96212894429989        5.0                      # Si
194  194  2    29.263279685654712       99.96212894429989        11.081138669036534       # Si
195  195  2    39.01733080292386        99.96212894429989        5.0                      # Si
196  196  2    39.01733080292386        99.96212894429989        11.081138669036534       # Si
197  197  2    48.77194508711664        99.96212894429989        5.0                      # Si
198  198  2    48.77194508711664        99.96212894429989        11.081138669036534       # Si
199  199  2    58.52599620438579        99.96212894429989        5.0                      # Si
200  200  2    58.52599620438579        99.96212894429989        11.081138669036534       # Si
201  201  2    68.28061048857857        99.96212894429989        5.0                      # Si
202  202  2    68.28061048857857        99.96212894429989        11.081138669036534       # Si
203  203  2    78.03466160584772        99.96212894429989        5.0                      # Si
204  204  2    78.03466160584772        99.96212894429989        11.081138669036534       # Si
205  205  2    82.9116871644823         102.77796356244917       5.0                      # Si
206  206  2    82.9116871644823         102.77796356244917       11.081138669036534       # Si
207  207  2    92.66630144867507        102.77796356244917       5.0                      # Si
208  208  2    92.66630144867507        102.77796356244917       11.081138669036534       # Si
209  209  2    102.42035256594421       102.77796356244917       5.0                      # Si
210  210  2    102.42035256594421       102.77796356244917       11.081138669036534       # Si
211  211  2    112.17496685013703       102.77796356244917       5.0                      # Si
212  212  2    112.17496685013703       102.77796356244917       11.081138669036534       # Si
213  213  2    121.92901796740617       102.77796356244917       5.0                      # Si
214  214  2    121.92901796740617       102.77796356244917       11.081138669036534       # Si
215  215  2    131.68363225159894       102.77796356244917       5.0                      # Si
216  216  2    131.68363225159894       102.77796356244917       11.081138669036534       # Si
217  217  2    141.43768336886808       102.77796356244917       5.0                      # Si
218  218  2    141.43768336886808       102.77796356244917       11.081138669036534       # Si
219  219  2    151.19229765306088       102.77796356244917       5.0                      # Si
220  220  2    151.19229765306088       102.77796356244917       11.081138669036534       # Si
221  221  2    4.877025558634575        102.77796356244917       5.0                      # Si
222  222  2    4.877025558634575        102.77796356244917       11.081138669036534       # Si
223  223  2    14.631639842827356       102.77796356244917       5.0                      # Si
224  224  2    14.631639842827356       102.77796356244917       11.081138669036534       # Si
225  225  2    24.385690960096504       102.77796356244917       5.0                      # Si
226  226  2    24.385690960096504       102.77796356244917       11.081138669036534       # Si
227  227  2    34.14030524428929        102.77796356244917       5.0                      # Si
228  228  2    34.14030524428929        102.77796356244917       11.081138669036534       # Si
229  229  2    43.89435636155844        102.77796356244917       5.0                      # Si
230  230  2    43.89435636155844        102.77796356244917       11.081138669036534       # Si
231  231  2    53.64897064575122        102.77796356244917       5.0                      # Si
232  232  2    53.64897064575122        102.77796356244917       11.081138669036534       # Si
233  233  2    63.40302176302037        102.77796356244917       5.0                      # Si
234  234  2    63.40302176302037        102.77796356244917       11.081138669036534       # Si
235  235  2    73.15763604721315        102.77796356244917       5.0                      # Si
236  236  2    73.15763604721315        102.77796356244917       11.081138669036534       # Si
237  237  2    82.9116871644823         108.40963279874778       5.0                      # Si
238  238  2    82.9116871644823         108.40963279874778       11.081138669036534       # Si
239  239  2    92.66630144867507        108.40963279874778       5.0                      # Si
240  240  2    92.66630144867507        108.40963279874778       11.081138669036534       # Si
241  241  2    102.42035256594421       108.40963279874778       5.0                      # Si
242  242  2    102.42035256594421       108.40963279874778       11.081138669036534       # Si
243  243  2    112.17496685013703       108.40963279874778       5.0                      # Si
244  244  2    112.17496685013703       108.40963279874778       11.081138669036534       # Si
245  245  2    121.92901796740617       108.40963279874778       5.0                      # Si
246  246  2    121.92901796740617       108.40963279874778       11.081138669036534       # Si
247  247  2    131.68363225159894       108.40963279874778       5.0                      # Si
248  248  2    131.68363225159894       108.40963279874778       11.081138669036534       # Si
249  249  2    141.43768336886808       108.40963279874778       5.0                      # Si
250  250  2    141.43768336886808       108.40963279874778       11.081138669036534       # Si
251  251  2    151.19229765306088       108.40963279874778       5.0                      # Si
252  252  2    151.19229765306088       108.40963279874778       11.081138669036534       # Si
253  253  2    4.877025558634575        108.40963279874778       5.0                      # Si
254  254  2    4.877025558634575        108.40963279874778       11.081138669036534       # Si
255  255  2    14.631639842827356       108.40963279874778       5.0                      # Si
256  256  2    14.631639842827356       108.40963279874778       11.081138669036534       # Si
257  257  2    24.385690960096504       108.40963279874778       5.0                      # Si
258  258  2    24.385690960096504       108.40963279874778       11.081138669036534       # Si
259  259  2    34.14030524428929        108.40963279874778       5.0                      # Si
260  260  2    34.14030524428929        108.40963279874778       11.081138669036534       # Si
261  261  2    43.89435636155844        108.40963279874778       5.0                      # Si
262  262  2    43.89435636155844        108.40963279874778       11.081138669036534       # Si
263  263  2    53.64897064575122        108.40963279874778       5.0                      # Si
264  264  2    53.64897064575122        108.40963279874778       11.081138669036534       # Si
265  265  2    63.40302176302037        108.40963279874778       5.0                      # Si
266  266  2    63.40302176302037        108.40963279874778       11.081138669036534       # Si
267  267  2    73.15763604721315        108.40963279874778       5.0                      # Si
268  268  2    73.15763604721315        108.40963279874778       11.081138669036534       # Si
269  269  2    78.03466160584772        111.22546741689706       5.0                      # Si
270  270  2    78.03466160584772        111.22546741689706       11.081138669036534       # Si
271  271  2    87.7892758900405         111.22546741689706       5.0                      # Si
272  272  2    87.7892758900405         111.22546741689706       11.081138669036534       # Si
273  273  2    97.54332700730966        111.22546741689706       5.0                      # Si
274  274  2    97.54332700730966        111.22546741689706       11.081138669036534       # Si
275  275  2    107.29794129150244       111.22546741689706       5.0                      # Si
276  276  2    107.29794129150244       111.22546741689706       11.081138669036534       # Si
277  277  2    117.05199240877158       111.22546741689706       5.0                      # Si
278  278  2    117.05199240877158       111.22546741689706       11.081138669036534       # Si
279  279  2    126.80660669296435       111.22546741689706       5.0                      # Si
280  280  2    126.80660669296435       111.22546741689706       11.081138669036534       # Si
281  281  2    136.56065781023352       111.22546741689706       5.0                      # Si
282  282  2    136.56065781023352       111.22546741689706       11.081138669036534       # Si
283  283  2    146.3152720944263        111.22546741689706       5.0                      # Si
284  284  2    146.3152720944263        111.22546741689706       11.081138669036534       # Si
285  285  2    156.06932321169543       111.22546741689706       5.0                      # Si
286  286  2    156.06932321169543       111.22546741689706       11.081138669036534       # Si
287  287  2    9.75461428419278         111.22546741689706       5.0                      # Si
288  288  2    9.75461428419278         111.22546741689706       11.081138669036534       # Si
289  289  2    19.50866540146193        111.22546741689706       5.0                      # Si
290  290  2    19.50866540146193        111.22546741689706       11.081138669036534       # Si
291  291  2    29.263279685654712       111.22546741689706       5.0                      # Si
292  292  2    29.263279685654712       111.22546741689706       11.081138669036534       # Si
293  293  2    39.01733080292386        111.22546741689706       5.0                      # Si
294  294  2    39.01733080292386        111.22546741689706       11.081138669036534       # Si
295  295  2    48.77194508711664        111.22546741689706       5.0                      # Si
296  296  2    48.77194508711664        111.22546741689706       11.081138669036534       # Si
297  297  2    58.52599620438579        111.22546741689706       5.0                      # Si
298  298  2    58.52599620438579        111.22546741689706       11.081138669036534       # Si
299  299  2    68.28061048857857        111.22546741689706       5.0                      # Si
300  300  2    68.28061048857857        111.22546741689706       11.081138669036534       # Si
301  301  2    87.7892758900405         116.85713665319564       5.0                      # Si
302  302  2    87.7892758900405         116.85713665319564       11.081138669036534       # Si
303  303  2    97.54332700730966        116.85713665319564       5.0                      # Si
304  304  2    97.54332700730966        116.85713665319564       11.081138669036534       # Si
305  305  2    107.29794129150244       116.85713665319564       5.0                      # Si
306  306  2    107.29794129150244       116.85713665319564       11.081138669036534       # Si
307  307  2    117.05199240877158       116.85713665319564       5.0                      # Si
308  308  2    117.05199240877158       116.85713665319564       11.081138669036534       # Si
309  309  2    126.80660669296435       116.85713665319564       5.0                      # Si
310  310  2    126.80660669296435       116.85713665319564       11.081138669036534       # Si
311  311  2    136.56065781023352       116.85713665319564       5.0                      # Si