DATA FILE Produced from netmc results (cf David Morley)
1290 atoms
1 atom types
0.00000 62.463861556552004 xlo xhi
0.00000 54.09529092259326 ylo yhi

 Masses

1 12.0000 # Si

 Atoms # molecular

1    1    37.23808862411991        28.78146888830282        0.0                     # C
2    1    39.640474364579696       28.78146888830282        0.0                     # C
3    1    42.04299881091364        28.78146888830282        0.0                     # C
4    1    44.44538455137342        28.78146888830282        0.0                     # C
5    1    46.84790899770736        28.78146888830282        0.0                     # C
6    1    49.250294738167135       28.78146888830282        0.0                     # C
7    1    51.65281918450109        28.78146888830282        0.0                     # C
8    1    54.05520492496087        28.78146888830282        0.0                     # C
9    1    56.45772937129481        28.78146888830282        0.0                     # C
10   1    58.860115111754595       28.78146888830282        0.0                     # C
11   1    61.26263955808854        28.78146888830282        0.0                     # C
12   1    1.2011928702298913       28.78146888830282        0.0                     # C
13   1    3.603717316563834        28.78146888830282        0.0                     # C
14   1    6.006103057023616        28.78146888830282        0.0                     # C
15   1    8.40862750335756         28.78146888830282        0.0                     # C
16   1    10.81101324381734        28.78146888830282        0.0                     # C
17   1    13.213537690151286       28.78146888830282        0.0                     # C
18   1    15.615923430611065       28.78146888830282        0.0                     # C
19   1    18.018447876945007       28.78146888830282        0.0                     # C
20   1    20.420833617404792       28.78146888830282        0.0                     # C
21   1    38.43928149434981        29.4749982591053         0.0                     # C
22   1    40.84180594068374        29.4749982591053         0.0                     # C
23   1    43.244191681143526       29.4749982591053         0.0                     # C
24   1    45.64671612747747        29.4749982591053         0.0                     # C
25   1    48.049101867937246       29.4749982591053         0.0                     # C
26   1    50.45162631427119        29.4749982591053         0.0                     # C
27   1    52.85401205473098        29.4749982591053         0.0                     # C
28   1    55.25653650106492        29.4749982591053         0.0                     # C
29   1    57.6589222415247         29.4749982591053         0.0                     # C
30   1    60.06144668785864        29.4749982591053         0.0                     # C
31   1    62.463832428318426       29.4749982591053         0.0                     # C
32   1    2.402524446333943        29.4749982591053         0.0                     # C
33   1    4.804910186793726        29.4749982591053         0.0                     # C
34   1    7.207434633127668        29.4749982591053         0.0                     # C
35   1    9.609820373587452        29.4749982591053         0.0                     # C
36   1    12.012344819921394       29.4749982591053         0.0                     # C
37   1    14.414730560381175       29.4749982591053         0.0                     # C
38   1    16.81725500671512        29.4749982591053         0.0                     # C
39   1    19.219640747174903       29.4749982591053         0.0                     # C
40   1    38.43928149434981        30.86205700071025        0.0                     # C
41   1    40.84180594068374        30.86205700071025        0.0                     # C
42   1    43.244191681143526       30.86205700071025        0.0                     # C
43   1    45.64671612747747        30.86205700071025        0.0                     # C
44   1    48.049101867937246       30.86205700071025        0.0                     # C
45   1    50.45162631427119        30.86205700071025        0.0                     # C
46   1    52.85401205473098        30.86205700071025        0.0                     # C
47   1    55.25653650106492        30.86205700071025        0.0                     # C
48   1    57.6589222415247         30.86205700071025        0.0                     # C
49   1    60.06144668785864        30.86205700071025        0.0                     # C
50   1    62.463832428318426       30.86205700071025        0.0                     # C
51   1    2.402524446333943        30.86205700071025        0.0                     # C
52   1    4.804910186793726        30.86205700071025        0.0                     # C
53   1    7.207434633127668        30.86205700071025        0.0                     # C
54   1    9.609820373587452        30.86205700071025        0.0                     # C
55   1    12.012344819921394       30.86205700071025        0.0                     # C
56   1    14.414730560381175       30.86205700071025        0.0                     # C
57   1    16.81725500671512        30.86205700071025        0.0                     # C
58   1    19.219640747174903       30.86205700071025        0.0                     # C
59   1    37.23808862411991        31.55558637151273        0.0                     # C
60   1    39.640474364579696       31.55558637151273        0.0                     # C
61   1    42.04299881091364        31.55558637151273        0.0                     # C
62   1    44.44538455137342        31.55558637151273        0.0                     # C
63   1    46.84790899770736        31.55558637151273        0.0                     # C
64   1    49.250294738167135       31.55558637151273        0.0                     # C
65   1    51.65281918450109        31.55558637151273        0.0                     # C
66   1    54.05520492496087        31.55558637151273        0.0                     # C
67   1    56.45772937129481        31.55558637151273        0.0                     # C
68   1    58.860115111754595       31.55558637151273        0.0                     # C
69   1    61.26263955808854        31.55558637151273        0.0                     # C
70   1    1.2011928702298913       31.55558637151273        0.0                     # C
71   1    3.603717316563834        31.55558637151273        0.0                     # C
72   1    6.006103057023616        31.55558637151273        0.0                     # C
73   1    8.40862750335756         31.55558637151273        0.0                     # C
74   1    10.81101324381734        31.55558637151273        0.0                     # C
75   1    13.213537690151286       31.55558637151273        0.0                     # C
76   1    15.615923430611065       31.55558637151273        0.0                     # C
77   1    18.018447876945007       31.55558637151273        0.0                     # C
78   1    20.420833617404792       31.55558637151273        0.0                     # C
79   1    37.23808862411991        32.942645113117685       0.0                     # C
80   1    39.640474364579696       32.942645113117685       0.0                     # C
81   1    42.04299881091364        32.942645113117685       0.0                     # C
82   1    44.44538455137342        32.942645113117685       0.0                     # C
83   1    46.84790899770736        32.942645113117685       0.0                     # C
84   1    49.250294738167135       32.942645113117685       0.0                     # C
85   1    51.65281918450109        32.942645113117685       0.0                     # C
86   1    54.05520492496087        32.942645113117685       0.0                     # C
87   1    56.45772937129481        32.942645113117685       0.0                     # C
88   1    58.860115111754595       32.942645113117685       0.0                     # C
89   1    61.26263955808854        32.942645113117685       0.0                     # C
90   1    1.2011928702298913       32.942645113117685       0.0                     # C
91   1    3.603717316563834        32.942645113117685       0.0                     # C
92   1    6.006103057023616        32.942645113117685       0.0                     # C
93   1    8.40862750335756         32.942645113117685       0.0                     # C
94   1    10.81101324381734        32.942645113117685       0.0                     # C
95   1    13.213537690151286       32.942645113117685       0.0                     # C
96   1    15.615923430611065       32.942645113117685       0.0                     # C
97   1    18.018447876945007       32.942645113117685       0.0                     # C
98   1    20.420833617404792       32.942645113117685       0.0                     # C
99   1    38.43928149434981        33.63617448392016        0.0                     # C
100  1    40.84180594068374        33.63617448392016        0.0                     # C
101  1    43.244191681143526       33.63617448392016        0.0                     # C
102  1    45.64671612747747        33.63617448392016        0.0                     # C
103  1    48.049101867937246       33.63617448392016        0.0                     # C
104  1    50.45162631427119        33.63617448392016        0.0                     # C
105  1    52.85401205473098        33.63617448392016        0.0                     # C
106  1    55.25653650106492        33.63617448392016        0.0                     # C
107  1    57.6589222415247         33.63617448392016        0.0                     # C
108  1    60.06144668785864        33.63617448392016        0.0                     # C
109  1    62.463832428318426       33.63617448392016        0.0                     # C
110  1    2.402524446333943        33.63617448392016        0.0                     # C
111  1    4.804910186793726        33.63617448392016        0.0                     # C
112  1    7.207434633127668        33.63617448392016        0.0                     # C
113  1    9.609820373587452        33.63617448392016        0.0                     # C
114  1    12.012344819921394       33.63617448392016        0.0                     # C
115  1    14.414730560381175       33.63617448392016        0.0                     # C
116  1    16.81725500671512        33.63617448392016        0.0                     # C
117  1    19.219640747174903       33.63617448392016        0.0                     # C
118  1    36.036895753890015       35.02323322552512        0.0                     # C
119  1    38.43928149434981        35.02323322552512        0.0                     # C
120  1    40.84180594068374        35.02323322552512        0.0                     # C
121  1    43.244191681143526       35.02323322552512        0.0                     # C
122  1    45.64671612747747        35.02323322552512        0.0                     # C
123  1    48.049101867937246       35.02323322552512        0.0                     # C
124  1    50.45162631427119        35.02323322552512        0.0                     # C
125  1    52.85401205473098        35.02323322552512        0.0                     # C
126  1    55.25653650106492        35.02323322552512        0.0                     # C
127  1    57.6589222415247         35.02323322552512        0.0                     # C
128  1    60.06144668785864        35.02323322552512        0.0                     # C
129  1    62.463832428318426       35.02323322552512        0.0                     # C
130  1    2.402524446333943        35.02323322552512        0.0                     # C
131  1    4.804910186793726        35.02323322552512        0.0                     # C
132  1    7.207434633127668        35.02323322552512        0.0                     # C
133  1    9.609820373587452        35.02323322552512        0.0                     # C
134  1    12.012344819921394       35.02323322552512        0.0                     # C
135  1    14.414730560381175       35.02323322552512        0.0                     # C
136  1    16.81725500671512        35.02323322552512        0.0                     # C
137  1    19.219640747174903       35.02323322552512        0.0                     # C
138  1    21.62216519350884        35.02323322552512        0.0                     # C
139  1    32.433178437326184       35.71676259632759        0.0                     # C
140  1    34.83556417778597        35.71676259632759        0.0                     # C
141  1    37.23808862411991        35.71676259632759        0.0                     # C
142  1    39.640474364579696       35.71676259632759        0.0                     # C
143  1    42.04299881091364        35.71676259632759        0.0                     # C
144  1    44.44538455137342        35.71676259632759        0.0                     # C
145  1    46.84790899770736        35.71676259632759        0.0                     # C
146  1    49.250294738167135       35.71676259632759        0.0                     # C
147  1    51.65281918450109        35.71676259632759        0.0                     # C
148  1    54.05520492496087        35.71676259632759        0.0                     # C
149  1    56.45772937129481        35.71676259632759        0.0                     # C
150  1    58.860115111754595       35.71676259632759        0.0                     # C
151  1    61.26263955808854        35.71676259632759        0.0                     # C
152  1    1.2011928702298913       35.71676259632759        0.0                     # C
153  1    3.603717316563834        35.71676259632759        0.0                     # C
154  1    6.006103057023616        35.71676259632759        0.0                     # C
155  1    8.40862750335756         35.71676259632759        0.0                     # C
156  1    10.81101324381734        35.71676259632759        0.0                     # C
157  1    13.213537690151286       35.71676259632759        0.0                     # C
158  1    15.615923430611065       35.71676259632759        0.0                     # C
159  1    18.018447876945007       35.71676259632759        0.0                     # C
160  1    20.420833617404792       35.71676259632759        0.0                     # C
161  1    22.823358063738734       35.71676259632759        0.0                     # C
162  1    25.225743804198515       35.71676259632759        0.0                     # C
163  1    27.62826825053246        35.71676259632759        0.0                     # C
164  1    30.030653990992242       35.71676259632759        0.0                     # C
165  1    32.433178437326184       37.10382133793255        0.0                     # C
166  1    34.83556417778597        37.10382133793255        0.0                     # C
167  1    37.23808862411991        37.10382133793255        0.0                     # C
168  1    39.640474364579696       37.10382133793255        0.0                     # C
169  1    42.04299881091364        37.10382133793255        0.0                     # C
170  1    44.44538455137342        37.10382133793255        0.0                     # C
171  1    46.84790899770736        37.10382133793255        0.0                     # C
172  1    49.250294738167135       37.10382133793255        0.0                     # C
173  1    51.65281918450109        37.10382133793255        0.0                     # C
174  1    54.05520492496087        37.10382133793255        0.0                     # C
175  1    56.45772937129481        37.10382133793255        0.0                     # C
176  1    58.860115111754595       37.10382133793255        0.0                     # C
177  1    61.26263955808854        37.10382133793255        0.0                     # C
178  1    1.2011928702298913       37.10382133793255        0.0                     # C
179  1    3.603717316563834        37.10382133793255        0.0                     # C
180  1    6.006103057023616        37.10382133793255        0.0                     # C
181  1    8.40862750335756         37.10382133793255        0.0                     # C
182  1    10.81101324381734        37.10382133793255        0.0                     # C
183  1    13.213537690151286       37.10382133793255        0.0                     # C
184  1    15.615923430611065       37.10382133793255        0.0                     # C
185  1    18.018447876945007       37.10382133793255        0.0                     # C
186  1    20.420833617404792       37.10382133793255        0.0                     # C
187  1    22.823358063738734       37.10382133793255        0.0                     # C
188  1    25.225743804198515       37.10382133793255        0.0                     # C
189  1    27.62826825053246        37.10382133793255        0.0                     # C
190  1    30.030653990992242       37.10382133793255        0.0                     # C
191  1    31.23198556709629        37.797350708735024       0.0                     # C
192  1    33.63437130755607        37.797350708735024       0.0                     # C
193  1    36.036895753890015       37.797350708735024       0.0                     # C
194  1    38.43928149434981        37.797350708735024       0.0                     # C
195  1    40.84180594068374        37.797350708735024       0.0                     # C
196  1    43.244191681143526       37.797350708735024       0.0                     # C
197  1    45.64671612747747        37.797350708735024       0.0                     # C
198  1    48.049101867937246       37.797350708735024       0.0                     # C
199  1    50.45162631427119        37.797350708735024       0.0                     # C
200  1    52.85401205473098        37.797350708735024       0.0                     # C
201  1    55.25653650106492        37.797350708735024       0.0                     # C
202  1    57.6589222415247         37.797350708735024       0.0                     # C
203  1    60.06144668785864        37.797350708735024       0.0                     # C
204  1    62.463832428318426       37.797350708735024       0.0                     # C
205  1    2.402524446333943        37.797350708735024       0.0                     # C
206  1    4.804910186793726        37.797350708735024       0.0                     # C
207  1    7.207434633127668        37.797350708735024       0.0                     # C
208  1    9.609820373587452        37.797350708735024       0.0                     # C
209  1    12.012344819921394       37.797350708735024       0.0                     # C
210  1    14.414730560381175       37.797350708735024       0.0                     # C
211  1    16.81725500671512        37.797350708735024       0.0                     # C
212  1    19.219640747174903       37.797350708735024       0.0                     # C
213  1    21.62216519350884        37.797350708735024       0.0                     # C
214  1    24.024550933968623       37.797350708735024       0.0                     # C
215  1    26.427075380302572       37.797350708735024       0.0                     # C
216  1    28.82946112076235        37.797350708735024       0.0                     # C
217  1    33.63437130755607        39.184409450339984       0.0                     # C
218  1    36.036895753890015       39.184409450339984       0.0                     # C
219  1    38.43928149434981        39.184409450339984       0.0                     # C
220  1    40.84180594068374        39.184409450339984       0.0                     # C
221  1    43.244191681143526       39.184409450339984       0.0                     # C
222  1    45.64671612747747        39.184409450339984       0.0                     # C
223  1    48.049101867937246       39.184409450339984       0.0                     # C
224  1    50.45162631427119        39.184409450339984       0.0                     # C
225  1    52.85401205473098        39.184409450339984       0.0                     # C
226  1    55.25653650106492        39.184409450339984       0.0                     # C
227  1    57.6589222415247         39.184409450339984       0.0                     # C
228  1    60.06144668785864        39.184409450339984       0.0                     # C
229  1    62.463832428318426       39.184409450339984       0.0                     # C
230  1    2.402524446333943        39.184409450339984       0.0                     # C
231  1    4.804910186793726        39.184409450339984       0.0                     # C
232  1    7.207434633127668        39.184409450339984       0.0                     # C
233  1    9.609820373587452        39.184409450339984       0.0                     # C
234  1    12.012344819921394       39.184409450339984       0.0                     # C
235  1    14.414730560381175       39.184409450339984       0.0                     # C
236  1    16.81725500671512        39.184409450339984       0.0                     # C
237  1    19.219640747174903       39.184409450339984       0.0                     # C
238  1    21.62216519350884        39.184409450339984       0.0                     # C
239  1    24.024550933968623       39.184409450339984       0.0                     # C
240  1    26.427075380302572       39.184409450339984       0.0                     # C
241  1    28.82946112076235        39.184409450339984       0.0                     # C
242  1    31.23198556709629        39.184409450339984       0.0                     # C
243  1    32.433178437326184       39.87793882114246        0.0                     # C
244  1    34.83556417778597        39.87793882114246        0.0                     # C
245  1    37.23808862411991        39.87793882114246        0.0                     # C
246  1    39.640474364579696       39.87793882114246        0.0                     # C
247  1    42.04299881091364        39.87793882114246        0.0                     # C
248  1    44.44538455137342        39.87793882114246        0.0                     # C
249  1    46.84790899770736        39.87793882114246        0.0                     # C
250  1    49.250294738167135       39.87793882114246        0.0                     # C
251  1    51.65281918450109        39.87793882114246        0.0                     # C
252  1    54.05520492496087        39.87793882114246        0.0                     # C
253  1    56.45772937129481        39.87793882114246        0.0                     # C
254  1    58.860115111754595       39.87793882114246        0.0                     # C
255  1    61.26263955808854        39.87793882114246        0.0                     # C
256  1    1.2011928702298913       39.87793882114246        0.0                     # C
257  1    3.603717316563834        39.87793882114246        0.0                     # C
258  1    6.006103057023616        39.87793882114246        0.0                     # C
259  1    8.40862750335756         39.87793882114246        0.0                     # C
260  1    10.81101324381734        39.87793882114246        0.0                     # C
261  1    13.213537690151286       39.87793882114246        0.0                     # C
262  1    15.615923430611065       39.87793882114246        0.0                     # C
263  1    18.018447876945007       39.87793882114246        0.0                     # C
264  1    20.420833617404792       39.87793882114246        0.0                     # C
265  1    22.823358063738734       39.87793882114246        0.0                     # C
266  1    25.225743804198515       39.87793882114246        0.0                     # C
267  1    27.62826825053246        39.87793882114246        0.0                     # C
268  1    30.030653990992242       39.87793882114246        0.0                     # C
269  1    32.433178437326184       41.26499756274742        0.0                     # C
270  1    34.83556417778597        41.26499756274742        0.0                     # C
271  1    37.23808862411991        41.26499756274742        0.0                     # C
272  1    39.640474364579696       41.26499756274742        0.0                     # C
273  1    42.04299881091364        41.26499756274742        0.0                     # C
274  1    44.44538455137342        41.26499756274742        0.0                     # C
275  1    46.84790899770736        41.26499756274742        0.0                     # C
276  1    49.250294738167135       41.26499756274742        0.0                     # C
277  1    51.65281918450109        41.26499756274742        0.0                     # C
278  1    54.05520492496087        41.26499756274742        0.0                     # C
279  1    56.45772937129481        41.26499756274742        0.0                     # C
280  1    58.860115111754595       41.26499756274742        0.0                     # C
281  1    61.26263955808854        41.26499756274742        0.0                     # C
282  1    1.2011928702298913       41.26499756274742        0.0                     # C
283  1    3.603717316563834        41.26499756274742        0.0                     # C
284  1    6.006103057023616        41.26499756274742        0.0                     # C
285  1    8.40862750335756         41.26499756274742        0.0                     # C
286  1    10.81101324381734        41.26499756274742        0.0                     # C
287  1    13.213537690151286       41.26499756274742        0.0                     # C
288  1    15.615923430611065       41.26499756274742        0.0                     # C
289  1    18.018447876945007       41.26499756274742        0.0                     # C
290  1    20.420833617404792       41.26499756274742        0.0                     # C
291  1    22.823358063738734       41.26499756274742        0.0                     # C
292  1    25.225743804198515       41.26499756274742        0.0                     # C
293  1    27.62826825053246        41.26499756274742        0.0                     # C
294  1    30.030653990992242       41.26499756274742        0.0                     # C
295  1    31.23198556709629        41.95852693354989        0.0                     # C
296  1    33.63437130755607        41.95852693354989        0.0                     # C
297  1    36.036895753890015       41.95852693354989        0.0                     # C
298  1    38.43928149434981        41.95852693354989        0.0                     # C
299  1    40.84180594068374        41.95852693354989        0.0                     # C
300  1    43.244191681143526       41.95852693354989        0.0                     # C
301  1    45.64671612747747        41.95852693354989        0.0                     # C
302  1    48.049101867937246       41.95852693354989        0.0                     # C
303  1    50.45162631427119        41.95852693354989        0.0                     # C
304  1    52.85401205473098        41.95852693354989        0.0                     # C
305  1    55.25653650106492        41.95852693354989        0.0                     # C
306  1    57.6589222415247         41.95852693354989        0.0                     # C
307  1    60.06144668785864        41.95852693354989        0.0                     # C
308  1    62.463832428318426       41.95852693354989        0.0                     # C
309  1    2.402524446333943        41.95852693354989        0.0                     # C
310  1    4.804910186793726        41.95852693354989        0.0                     # C
311  1    7.207434633127668        41.95852693354989        0.0                     # C
312  1    9.609820373587452        41.95852693354989        0.0                     # C
313  1    12.012344819921394       41.95852693354989        0.0                     # C
314  1    14.414730560381175       41.95852693354989        0.0                     # C
315  1    16.81725500671512        41.95852693354989        0.0                     # C
316  1    19.219640747174903       41.95852693354989        0.0                     # C
317  1    21.62216519350884        41.95852693354989        0.0                     # C
318  1    24.024550933968623       41.95852693354989        0.0                     # C
319  1    26.427075380302572       41.95852693354989        0.0                     # C
320  1    28.82946112076235        41.95852693354989        0.0                     # C
321  1    33.63437130755607        43.34558567515485        0.0                     # C
322  1    36.036895753890015       43.34558567515485        0.0                     # C
323  1    38.43928149434981        43.34558567515485        0.0                     # C
324  1    40.84180594068374        43.34558567515485        0.0                     # C
325  1    43.244191681143526       43.34558567515485        0.0                     # C
326  1    45.64671612747747        43.34558567515485        0.0                     # C
327  1    48.049101867937246       43.34558567515485        0.0                     # C
328  1    50.45162631427119        43.34558567515485        0.0                     # C
329  1    52.85401205473098        43.34558567515485        0.0                     # C
330  1    55.25653650106492        43.34558567515485        0.0                     # C
331  1    57.6589222415247         43.34558567515485        0.0                     # C
332  1    60.06144668785864        43.34558567515485        0.0                     # C
333  1    62.463832428318426       43.34558567515485        0.0                     # C
334  1    2.402524446333943        43.34558567515485        0.0                     # C
335  1    4.804910186793726        43.34558567515485        0.0                     # C
336  1    7.207434633127668        43.34558567515485        0.0                     # C
337  1    9.609820373587452        43.34558567515485        0.0                     # C
338  1    12.012344819921394       43.34558567515485        0.0                     # C