DATA FILE Produced from netmc results (cf David Morley)
650 atoms
1560 bonds
0 angles
0 dihedrals
0 impropers
2 atom types
2 bond types
0 angle types
0 dihedral types
0 improper types
0.00000 113.22464183605861 xlo xhi
0.00000 98.05541470583547 ylo yhi

# Pair Coeffs
#
# 1  O
# 2  Si

# Bond Coeffs
# 
# 1  O-O
# 2  Si-O
# 3  O-O rep
# 4  Si-Si rep

 Masses

1 28.10000 # O 
2 32.01000 # Si

 Atoms # molecular

1    1    2    80.20061319251067        55.83711115193409        5.0                      # Si
2    2    2    89.63626784873165        55.83711115193409        5.0                      # Si
3    3    2    99.0713777526487         55.83711115193409        5.0                      # Si
4    4    2    108.5070324088697        55.83711115193409        5.0                      # Si
5    5    2    4.717554951958529        55.83711115193409        5.0                      # Si
6    6    2    14.153209608179507       55.83711115193409        5.0                      # Si
7    7    2    23.58831951209656        55.83711115193409        5.0                      # Si
8    8    2    33.02397416831754        55.83711115193409        5.0                      # Si
9    9    2    75.48305824055215        58.56087267154063        5.0                      # Si
10   10   2    84.91871289677312        58.56087267154063        5.0                      # Si
11   11   2    94.35382280069017        58.56087267154063        5.0                      # Si
12   12   2    103.78947745691117       58.56087267154063        5.0                      # Si
13   13   2    113.22458736082822       58.56087267154063        5.0                      # Si
14   14   2    9.43565465622098         58.56087267154063        5.0                      # Si
15   15   2    18.87076456013804        58.56087267154063        5.0                      # Si
16   16   2    28.306419216359014       58.56087267154063        5.0                      # Si
17   17   2    37.74152912027608        58.56087267154063        5.0                      # Si
18   18   2    84.91871289677312        64.0083957107537         5.0                      # Si
19   19   2    94.35382280069017        64.0083957107537         5.0                      # Si
20   20   2    103.78947745691117       64.0083957107537         5.0                      # Si
21   21   2    113.22458736082822       64.0083957107537         5.0                      # Si
22   22   2    9.43565465622098         64.0083957107537         5.0                      # Si
23   23   2    18.87076456013804        64.0083957107537         5.0                      # Si
24   24   2    28.306419216359014       64.0083957107537         5.0                      # Si
25   25   2    80.20061319251067        66.73215723036024        5.0                      # Si
26   26   2    89.63626784873165        66.73215723036024        5.0                      # Si
27   27   2    99.0713777526487         66.73215723036024        5.0                      # Si
28   28   2    108.5070324088697        66.73215723036024        5.0                      # Si
29   29   2    4.717554951958529        66.73215723036024        5.0                      # Si
30   30   2    14.153209608179507       66.73215723036024        5.0                      # Si
31   31   2    23.58831951209656        66.73215723036024        5.0                      # Si
32   32   2    33.02397416831754        66.73215723036024        5.0                      # Si
33   33   2    80.20061319251067        72.17968026957334        5.0                      # Si
34   34   2    89.63626784873165        72.17968026957334        5.0                      # Si
35   35   2    99.0713777526487         72.17968026957334        5.0                      # Si
36   36   2    108.5070324088697        72.17968026957334        5.0                      # Si
37   37   2    4.717554951958529        72.17968026957334        5.0                      # Si
38   38   2    14.153209608179507       72.17968026957334        5.0                      # Si
39   39   2    23.58831951209656        72.17968026957334        5.0                      # Si
40   40   2    33.02397416831754        72.17968026957334        5.0                      # Si
41   41   2    56.61229368041411        74.90344178917988        5.0                      # Si
42   42   2    66.04794833663507        74.90344178917988        5.0                      # Si
43   43   2    75.48305824055215        74.90344178917988        5.0                      # Si
44   44   2    84.91871289677312        74.90344178917988        5.0                      # Si
45   45   2    94.35382280069017        74.90344178917988        5.0                      # Si
46   46   2    103.78947745691117       74.90344178917988        5.0                      # Si
47   47   2    113.22458736082822       74.90344178917988        5.0                      # Si
48   48   2    9.43565465622098         74.90344178917988        5.0                      # Si
49   49   2    18.87076456013804        74.90344178917988        5.0                      # Si
50   50   2    28.306419216359014       74.90344178917988        5.0                      # Si
51   51   2    37.74152912027608        74.90344178917988        5.0                      # Si
52   52   2    47.17718377649705        74.90344178917988        5.0                      # Si
53   53   2    66.04794833663507        80.35096482839295        5.0                      # Si
54   54   2    75.48305824055215        80.35096482839295        5.0                      # Si
55   55   2    84.91871289677312        80.35096482839295        5.0                      # Si
56   56   2    94.35382280069017        80.35096482839295        5.0                      # Si
57   57   2    103.78947745691117       80.35096482839295        5.0                      # Si
58   58   2    113.22458736082822       80.35096482839295        5.0                      # Si
59   59   2    9.43565465622098         80.35096482839295        5.0                      # Si
60   60   2    18.87076456013804        80.35096482839295        5.0                      # Si
61   61   2    28.306419216359014       80.35096482839295        5.0                      # Si
62   62   2    37.74152912027608        80.35096482839295        5.0                      # Si
63   63   2    47.17718377649705        80.35096482839295        5.0                      # Si
64   64   2    56.61229368041411        80.35096482839295        5.0                      # Si
65   65   2    61.329848632372645       83.07472634799949        5.0                      # Si
66   66   2    70.7655032885936         83.07472634799949        5.0                      # Si
67   67   2    80.20061319251067        83.07472634799949        5.0                      # Si
68   68   2    89.63626784873165        83.07472634799949        5.0                      # Si
69   69   2    99.0713777526487         83.07472634799949        5.0                      # Si
70   70   2    108.5070324088697        83.07472634799949        5.0                      # Si
71   71   2    4.717554951958529        83.07472634799949        5.0                      # Si
72   72   2    14.153209608179507       83.07472634799949        5.0                      # Si
73   73   2    23.58831951209656        83.07472634799949        5.0                      # Si
74   74   2    33.02397416831754        83.07472634799949        5.0                      # Si
75   75   2    42.4590840722346         83.07472634799949        5.0                      # Si
76   76   2    51.894738728455586       83.07472634799949        5.0                      # Si
77   77   2    61.329848632372645       88.52224938721258        5.0                      # Si
78   78   2    70.7655032885936         88.52224938721258        5.0                      # Si
79   79   2    80.20061319251067        88.52224938721258        5.0                      # Si
80   80   2    89.63626784873165        88.52224938721258        5.0                      # Si
81   81   2    99.0713777526487         88.52224938721258        5.0                      # Si
82   82   2    108.5070324088697        88.52224938721258        5.0                      # Si
83   83   2    4.717554951958529        88.52224938721258        5.0                      # Si
84   84   2    14.153209608179507       88.52224938721258        5.0                      # Si
85   85   2    23.58831951209656        88.52224938721258        5.0                      # Si
86   86   2    33.02397416831754        88.52224938721258        5.0                      # Si
87   87   2    42.4590840722346         88.52224938721258        5.0                      # Si
88   88   2    51.894738728455586       88.52224938721258        5.0                      # Si
89   89   2    56.61229368041411        91.24601090681912        5.0                      # Si
90   90   2    66.04794833663507        91.24601090681912        5.0                      # Si
91   91   2    75.48305824055215        91.24601090681912        5.0                      # Si
92   92   2    84.91871289677312        91.24601090681912        5.0                      # Si
93   93   2    94.35382280069017        91.24601090681912        5.0                      # Si
94   94   2    103.78947745691117       91.24601090681912        5.0                      # Si
95   95   2    113.22458736082822       91.24601090681912        5.0                      # Si
96   96   2    9.43565465622098         91.24601090681912        5.0                      # Si
97   97   2    18.87076456013804        91.24601090681912        5.0                      # Si
98   98   2    28.306419216359014       91.24601090681912        5.0                      # Si
99   99   2    37.74152912027608        91.24601090681912        5.0                      # Si
100  100  2    47.17718377649705        91.24601090681912        5.0                      # Si
101  101  2    66.04794833663507        96.6935339460322         5.0                      # Si
102  102  2    75.48305824055215        96.6935339460322         5.0                      # Si
103  103  2    84.91871289677312        96.6935339460322         5.0                      # Si
104  104  2    94.35382280069017        96.6935339460322         5.0                      # Si
105  105  2    103.78947745691117       96.6935339460322         5.0                      # Si
106  106  2    113.22458736082822       96.6935339460322         5.0                      # Si
107  107  2    9.43565465622098         96.6935339460322         5.0                      # Si
108  108  2    18.87076456013804        96.6935339460322         5.0                      # Si
109  109  2    28.306419216359014       96.6935339460322         5.0                      # Si
110  110  2    37.74152912027608        96.6935339460322         5.0                      # Si
111  111  2    47.17718377649705        96.6935339460322         5.0                      # Si
112  112  2    56.61229368041411        96.6935339460322         5.0                      # Si
113  113  2    61.329848632372645       1.3618807598032705       5.0                      # Si
114  114  2    70.7655032885936         1.3618807598032705       5.0                      # Si
115  115  2    80.20061319251067        1.3618807598032705       5.0                      # Si
116  116  2    89.63626784873165        1.3618807598032705       5.0                      # Si
117  117  2    99.0713777526487         1.3618807598032705       5.0                      # Si
118  118  2    108.5070324088697        1.3618807598032705       5.0                      # Si
119  119  2    4.717554951958529        1.3618807598032705       5.0                      # Si
120  120  2    14.153209608179507       1.3618807598032705       5.0                      # Si
121  121  2    23.58831951209656        1.3618807598032705       5.0                      # Si
122  122  2    33.02397416831754        1.3618807598032705       5.0                      # Si
123  123  2    42.4590840722346         1.3618807598032705       5.0                      # Si
124  124  2    51.894738728455586       1.3618807598032705       5.0                      # Si
125  125  2    61.329848632372645       6.809403799016352        5.0                      # Si
126  126  2    70.7655032885936         6.809403799016352        5.0                      # Si
127  127  2    80.20061319251067        6.809403799016352        5.0                      # Si
128  128  2    89.63626784873165        6.809403799016352        5.0                      # Si
129  129  2    99.0713777526487         6.809403799016352        5.0                      # Si
130  130  2    108.5070324088697        6.809403799016352        5.0                      # Si
131  131  2    4.717554951958529        6.809403799016352        5.0                      # Si
132  132  2    14.153209608179507       6.809403799016352        5.0                      # Si
133  133  2    23.58831951209656        6.809403799016352        5.0                      # Si
134  134  2    33.02397416831754        6.809403799016352        5.0                      # Si
135  135  2    42.4590840722346         6.809403799016352        5.0                      # Si
136  136  2    51.894738728455586       6.809403799016352        5.0                      # Si
137  137  2    56.61229368041411        9.533165318622892        5.0                      # Si
138  138  2    66.04794833663507        9.533165318622892        5.0                      # Si
139  139  2    75.48305824055215        9.533165318622892        5.0                      # Si
140  140  2    84.91871289677312        9.533165318622892        5.0                      # Si
141  141  2    94.35382280069017        9.533165318622892        5.0                      # Si
142  142  2    103.78947745691117       9.533165318622892        5.0                      # Si
143  143  2    113.22458736082822       9.533165318622892        5.0                      # Si
144  144  2    9.43565465622098         9.533165318622892        5.0                      # Si
145  145  2    18.87076456013804        9.533165318622892        5.0                      # Si
146  146  2    28.306419216359014       9.533165318622892        5.0                      # Si
147  147  2    37.74152912027608        9.533165318622892        5.0                      # Si
148  148  2    47.17718377649705        9.533165318622892        5.0                      # Si
149  149  2    66.04794833663507        14.980688357835973       5.0                      # Si
150  150  2    75.48305824055215        14.980688357835973       5.0                      # Si
151  151  2    84.91871289677312        14.980688357835973       5.0                      # Si
152  152  2    94.35382280069017        14.980688357835973       5.0                      # Si
153  153  2    103.78947745691117       14.980688357835973       5.0                      # Si
154  154  2    113.22458736082822       14.980688357835973       5.0                      # Si
155  155  2    9.43565465622098         14.980688357835973       5.0                      # Si
156  156  2    18.87076456013804        14.980688357835973       5.0                      # Si
157  157  2    28.306419216359014       14.980688357835973       5.0                      # Si
158  158  2    37.74152912027608        14.980688357835973       5.0                      # Si
159  159  2    47.17718377649705        14.980688357835973       5.0                      # Si
160  160  2    56.61229368041411        14.980688357835973       5.0                      # Si
161  161  2    61.329848632372645       17.704449877442514       5.0                      # Si
162  162  2    70.7655032885936         17.704449877442514       5.0                      # Si
163  163  2    80.20061319251067        17.704449877442514       5.0                      # Si
164  164  2    89.63626784873165        17.704449877442514       5.0                      # Si
165  165  2    99.0713777526487         17.704449877442514       5.0                      # Si
166  166  2    108.5070324088697        17.704449877442514       5.0                      # Si
167  167  2    4.717554951958529        17.704449877442514       5.0                      # Si
168  168  2    14.153209608179507       17.704449877442514       5.0                      # Si
169  169  2    23.58831951209656        17.704449877442514       5.0                      # Si
170  170  2    33.02397416831754        17.704449877442514       5.0                      # Si
171  171  2    42.4590840722346         17.704449877442514       5.0                      # Si
172  172  2    51.894738728455586       17.704449877442514       5.0                      # Si
173  173  2    61.329848632372645       23.1519729166556         5.0                      # Si
174  174  2    70.7655032885936         23.1519729166556         5.0                      # Si
175  175  2    80.20061319251067        23.1519729166556         5.0                      # Si
176  176  2    89.63626784873165        23.1519729166556         5.0                      # Si
177  177  2    99.0713777526487         23.1519729166556         5.0                      # Si
178  178  2    108.5070324088697        23.1519729166556         5.0                      # Si
179  179  2    4.717554951958529        23.1519729166556         5.0                      # Si
180  180  2    14.153209608179507       23.1519729166556         5.0                      # Si
181  181  2    23.58831951209656        23.1519729166556         5.0                      # Si
182  182  2    33.02397416831754        23.1519729166556         5.0                      # Si
183  183  2    42.4590840722346         23.1519729166556         5.0                      # Si
184  184  2    51.894738728455586       23.1519729166556         5.0                      # Si
185  185  2    56.61229368041411        25.87573443626214        5.0                      # Si
186  186  2    66.04794833663507        25.87573443626214        5.0                      # Si
187  187  2    75.48305824055215        25.87573443626214        5.0                      # Si
188  188  2    84.91871289677312        25.87573443626214        5.0                      # Si
189  189  2    94.35382280069017        25.87573443626214        5.0                      # Si
190  190  2    103.78947745691117       25.87573443626214        5.0                      # Si
191  191  2    113.22458736082822       25.87573443626214        5.0                      # Si
192  192  2    9.43565465622098         25.87573443626214        5.0                      # Si
193  193  2    18.87076456013804        25.87573443626214        5.0                      # Si
194  194  2    28.306419216359014       25.87573443626214        5.0                      # Si
195  195  2    37.74152912027608        25.87573443626214        5.0                      # Si
196  196  2    47.17718377649705        25.87573443626214        5.0                      # Si
197  197  2    66.04794833663507        31.32325747547522        5.0                      # Si
198  198  2    75.48305824055215        31.32325747547522        5.0                      # Si
199  199  2    84.91871289677312        31.32325747547522        5.0                      # Si
200  200  2    94.35382280069017        31.32325747547522        5.0                      # Si
201  201  2    103.78947745691117       31.32325747547522        5.0                      # Si
202  202  2    113.22458736082822       31.32325747547522        5.0                      # Si
203  203  2    9.43565465622098         31.32325747547522        5.0                      # Si
204  204  2    18.87076456013804        31.32325747547522        5.0                      # Si
205  205  2    28.306419216359014       31.32325747547522        5.0                      # Si
206  206  2    37.74152912027608        31.32325747547522        5.0                      # Si
207  207  2    47.17718377649705        31.32325747547522        5.0                      # Si
208  208  2    56.61229368041411        31.32325747547522        5.0                      # Si
209  209  2    61.329848632372645       34.047018995081764       5.0                      # Si
210  210  2    70.7655032885936         34.047018995081764       5.0                      # Si
211  211  2    80.20061319251067        34.047018995081764       5.0                      # Si
212  212  2    89.63626784873165        34.047018995081764       5.0                      # Si
213  213  2    99.0713777526487         34.047018995081764       5.0                      # Si
214  214  2    108.5070324088697        34.047018995081764       5.0                      # Si
215  215  2    4.717554951958529        34.047018995081764       5.0                      # Si
216  216  2    14.153209608179507       34.047018995081764       5.0                      # Si
217  217  2    23.58831951209656        34.047018995081764       5.0                      # Si
218  218  2    33.02397416831754        34.047018995081764       5.0                      # Si
219  219  2    42.4590840722346         34.047018995081764       5.0                      # Si
220  220  2    51.894738728455586       34.047018995081764       5.0                      # Si
221  221  2    70.7655032885936         39.494542034294845       5.0                      # Si
222  222  2    80.20061319251067        39.494542034294845       5.0                      # Si
223  223  2    89.63626784873165        39.494542034294845       5.0                      # Si
224  224  2    99.0713777526487         39.494542034294845       5.0                      # Si
225  225  2    108.5070324088697        39.494542034294845       5.0                      # Si
226  226  2    4.717554951958529        39.494542034294845       5.0                      # Si
227  227  2    14.153209608179507       39.494542034294845       5.0                      # Si
228  228  2    23.58831951209656        39.494542034294845       5.0                      # Si
229  229  2    33.02397416831754        39.494542034294845       5.0                      # Si
230  230  2    42.4590840722346         39.494542034294845       5.0                      # Si
231  231  2    66.04794833663507        42.218303553901386       5.0                      # Si
232  232  2    75.48305824055215        42.218303553901386       5.0                      # Si
233  233  2    84.91871289677312        42.218303553901386       5.0                      # Si
234  234  2    94.35382280069017        42.218303553901386       5.0                      # Si
235  235  2    103.78947745691117       42.218303553901386       5.0                      # Si
236  236  2    113.22458736082822       42.218303553901386       5.0                      # Si
237  237  2    9.43565465622098         42.218303553901386       5.0                      # Si
238  238  2    18.87076456013804        42.218303553901386       5.0                      # Si
239  239  2    28.306419216359014       42.218303553901386       5.0                      # Si
240  240  2    37.74152912027608        42.218303553901386       5.0                      # Si
241  241  2    47.17718377649705        42.218303553901386       5.0                      # Si
242  242  2    75.48305824055215        47.66582659311446        5.0                      # Si
243  243  2    84.91871289677312        47.66582659311446        5.0                      # Si
244  244  2    94.35382280069017        47.66582659311446        5.0                      # Si
245  245  2    103.78947745691117       47.66582659311446        5.0                      # Si
246  246  2    113.22458736082822       47.66582659311446        5.0                      # Si
247  247  2    9.43565465622098         47.66582659311446        5.0                      # Si
248  248  2    18.87076456013804        47.66582659311446        5.0                      # Si
249  249  2    28.306419216359014       47.66582659311446        5.0                      # Si
250  250  2    37.74152912027608        47.66582659311446        5.0                      # Si
251  251  2    70.7655032885936         50.389588112721          5.0                      # Si
252  252  2    80.20061319251067        50.389588112721          5.0                      # Si
253  253  2    89.63626784873165        50.389588112721          5.0                      # Si
254  254  2    99.0713777526487         50.389588112721          5.0                      # Si
255  255  2    108.5070324088697        50.389588112721          5.0                      # Si
256  256  2    4.717554951958529        50.389588112721          5.0                      # Si
257  257  2    14.153209608179507       50.389588112721          5.0                      # Si
258  258  2    23.58831951209656        50.389588112721          5.0                      # Si
259  259  2    33.02397416831754        50.389588112721          5.0                      # Si
260  260  2    42.4590840722346         50.389588112721          5.0                      # Si
261  261  1    77.84183571653142        57.19899191173736        5.0                      # O
262  262  1    82.3096630446419         57.632004613629576       5.0                      # O
263  263  1    80.70061319251067        53.11334963232754        5.0                      # O
264  264  1    87.27749037275238        57.19899191173736        5.0                      # O
265  265  1    91.7450453247109         57.632004613629576       5.0                      # O
266  266  1    90.13626784873165        53.11334963232754        5.0                      # O
267  267  1    96.71260027666943        57.19899191173736        5.0                      # O
268  268  1    101.18042760477994       57.632004613629576       5.0                      # O
269  269  1    99.5713777526487         53.11334963232754        5.0                      # O
270  270  1    106.14825493289044       57.19899191173736        5.0                      # O
271  271  1    110.61580988484897       57.632004613629576       5.0                      # O
272  272  1    109.0070324088697        53.11334963232754        5.0                      # O
273  273  1    2.3587502383640695       57.19899191173736        5.0                      # O
274  274  1    6.8266048040897545       57.632004613629576       5.0                      # O
275  275  1    5.217554951958529        53.11334963232754        5.0                      # O
276  276  1    11.794432132200242       57.19899191173736        5.0                      # O
277  277  1    16.261987084158772       57.632004613629576       5.0                      # O
278  278  1    14.653209608179507       53.11334963232754        5.0                      # O
279  279  1    21.2295420361173         57.19899191173736        5.0                      # O
280  280  1    25.69736936422779        57.632004613629576       5.0                      # O
281  281  1    24.08831951209656        53.11334963232754        5.0                      # O
282  282  1    30.665196692338277       57.19899191173736        5.0                      # O
283  283  1    35.1327516442968         57.632004613629576       5.0                      # O
284  284  1    33.52397416831754        53.11334963232754        5.0                      # O
285  285  1    77.84183571653142        62.64651495095043        5.0                      # O
286  286  1    73.12428076457289        54.47523039213081        5.0                      # O
287  287  1    85.41871289677312        61.28463419114716        5.0                      # O
288  288  1    94.85382280069017        61.28463419114716        5.0                      # O
289  289  1    104.28947745691117       61.28463419114716        5.0                      # O
290  290  1    0.49994552476961474      61.28463419114716        5.0                      # O
291  291  1    9.93565465622098         61.28463419114716        5.0                      # O
292  292  1    19.37076456013804        61.28463419114716        5.0                      # O
293  293  1    28.806419216359014       61.28463419114716        5.0                      # O
294  294  1    40.100306596255336       54.47523039213081        5.0                      # O
295  295  1    35.3827516442968         62.64651495095043        5.0                      # O
296  296  1    82.5596630446419         65.37027647055697        5.0                      # O
297  297  1    87.02749037275238        65.8032891724492         5.0                      # O
298  298  1    91.9950453247109         65.37027647055697        5.0                      # O
299  299  1    96.46260027666943        65.8032891724492         5.0                      # O
300  300  1    101.43042760477994       65.37027647055697        5.0                      # O
301  301  1    105.89825493289044       65.8032891724492         5.0                      # O
302  302  1    110.86580988484897       65.37027647055697        5.0                      # O
303  303  1    2.108750238364067        65.8032891724492         5.0                      # O
304  304  1    7.0766048040897545       65.37027647055697        5.0                      # O
305  305  1    11.544432132200242       65.8032891724492         5.0                      # O
306  306  1    16.511987084158772       65.37027647055697        5.0                      # O
307  307  1    20.9795420361173         65.8032891724492         5.0                      # O
308  308  1    25.94736936422779        65.37027647055697        5.0                      # O
309  309  1    30.415196692338277       65.8032891724492         5.0                      # O
310  310  1    80.70061319251067        69.4559187499668         5.0                      # O
311  311  1    90.13626784873165        69.4559187499668         5.0                      # O