LAMMPS data file via write_data, version 22 Jul 2025, timestep = 114, units = electron

260 atoms
1 atom types
390 bonds
1 bond types
780 angles
1 angle types

-0.2042806007586534 19.952698552650173 xlo xhi
-0.18522704677425825 17.28785842326134 ylo yhi
-0.5 0.5 zlo zhi

Masses

1 28.0855

Bond Coeffs # harmonic

1 0.8 1

Angle Coeffs # cosine/squared

1 0.2 120

Atoms # molecular

1 1 1 13.949291282708854 9.583468493339332 0 0 0 0
2 2 1 15.646565617194062 9.669637679628888 0 0 0 0
3 3 1 17.360286306280337 9.706838249183285 0 0 0 0
4 4 1 19.08765759215933 9.716866645208201 0 0 0 0
5 5 1 0.6607748189162538 9.716866667232736 0 0 0 0
6 6 1 2.3881461111970665 9.706838222567491 0 0 0 0
7 7 1 4.101866757597861 9.669637668642924 0 0 0 0
8 8 1 5.79914116414604 9.583468479774021 0 0 0 0
9 9 1 13.00600922341948 9.965096741718506 0 0 0 0
10 10 1 14.731177223639774 10.087653558212995 0 0 0 0
11 11 1 16.461988965288942 10.169411176826905 0 0 0 0
12 12 1 18.20710920833805 10.194696364756208 0 0 0 0
13 13 1 -0.20427335407283798 10.199965467661999 0 1 0 0
14 14 1 1.5413232266786534 10.194696377268304 0 0 0 0
15 15 1 3.2864434741635047 10.169411140598019 0 0 0 0
16 16 1 5.0172552259625505 10.087653579681563 0 0 0 0
17 17 1 6.742423177040261 9.96509673576457 0 0 0 0
18 18 1 14.551820990830969 10.973736132567044 0 0 0 0
19 19 1 16.381877606370796 11.111125796900849 0 0 0 0
20 20 1 18.176031342176255 11.146821913854307 0 0 0 0
21 21 1 -0.20427336639952662 11.154790535770635 0 1 0 0
22 22 1 1.5724010711460734 11.146821897424276 0 0 0 0
23 23 1 3.3665548281119984 11.111125791402365 0 0 0 0
24 24 1 5.196611435313561 10.97373611554532 0 0 0 0
25 25 1 13.473740288153168 11.132632719540261 0 0 0 0
26 26 1 15.41787726264046 11.53658714743333 0 0 0 0
27 27 1 17.26010615033702 11.610711019630585 0 0 0 0
28 28 1 19.059003733522534 11.631590387775807 0 0 0 0
29 29 1 0.689428693575134 11.631590357619235 0 0 0 0
30 30 1 2.4883262796298484 11.610711024504736 0 0 0 0
31 31 1 4.330555167516092 11.536587134198932 0 0 0 0
32 32 1 6.2746921296301075 11.132632658303052 0 0 0 0
33 33 1 13.341555452680575 12.300358668475438 0 0 0 0
34 34 1 15.359741559076326 12.469411561042822 0 0 0 0
35 35 1 17.23285087349839 12.551110228380471 0 0 0 0
36 36 1 19.050948723480918 12.57818865831298 0 0 0 0
37 37 1 0.6974837004199173 12.578188662708133 0 0 0 0
38 38 1 2.515581537532731 12.55111022046052 0 0 0 0
39 39 1 4.3886908380843 12.469411539563646 0 0 0 0
40 40 1 6.406877032794065 12.300358663452622 0 0 0 0
41 41 1 9.874216273720515 13.286225725328263 0 0 0 0
42 42 1 11.166106595256602 13.221132569762108 0 0 0 0
43 43 1 12.404144332442065 13.018040733393004 0 0 0 0
44 44 1 14.394910584513518 12.889732673002149 0 0 0 0
45 45 1 16.30439232046561 13.000109642849548 0 0 0 0
46 46 1 18.14301191219714 13.047041818322686 0 0 0 0
47 47 1 -0.20427334874938766 13.059259438497199 0 1 0 0
48 48 1 1.6054205244925424 13.047041831545824 0 0 0 0
49 49 1 3.4440401161802905 13.00010960100635 0 0 0 0
50 50 1 5.3535218533722455 12.889732689493124 0 0 0 0
51 51 1 7.344288045671952 13.018040756996156 0 0 0 0
52 52 1 8.582325801300351 13.221132518769329 0 0 0 0
53 53 1 11.315569772716428 14.232547070048543 0 0 0 0
54 54 1 12.814781631177661 14.023374132875725 0 0 0 0
55 55 1 14.52212623626916 13.922149969046238 0 0 0 0
56 56 1 16.336822330237812 13.964522616064931 0 0 0 0
57 57 1 18.150200025090466 13.999346559906963 0 0 0 0
58 58 1 -0.20427336330578166 14.010233160970564 0 1 0 0
59 59 1 1.5982323939001455 13.999346549521267 0 0 0 0
60 60 1 3.4116101200958915 13.964522614450718 0 0 0 0
61 61 1 5.226306167419323 13.922149964539573 0 0 0 0
62 62 1 6.933650825691611 14.02337407714995 0 0 0 0
63 63 1 8.432862605232174 14.232547109234343 0 0 0 0
64 64 1 9.874216241505636 14.299626990644676 0 0 0 0
65 65 1 10.620794215024175 14.769799688188861 0 0 0 0
66 66 1 12.14209219878866 14.643062921695492 0 0 0 0
67 67 1 13.74005886064355 14.462295544880275 0 0 0 0
68 68 1 15.469299088450299 14.437341237970124 0 0 0 0
69 69 1 17.259943382332228 14.470011143302205 0 0 0 0
70 70 1 19.055828356363318 14.489031246879502 0 0 0 0
71 71 1 0.6926040639701475 14.489031232340007 0 0 0 0
72 72 1 2.488489043205116 14.470011147203243 0 0 0 0
73 73 1 4.279133329026189 14.437341236102952 0 0 0 0
74 74 1 6.0083735704344114 14.462295509333268 0 0 0 0
75 75 1 7.606340295713899 14.643062898307084 0 0 0 0
76 76 1 9.127638186089856 14.769799733114054 0 0 0 0
77 77 1 10.658592246382703 15.75995373234907 0 0 0 0
78 78 1 12.24224650829472 15.65022756570941 0 0 0 0
79 79 1 13.857003623111371 15.504355562614577 0 0 0 0
80 80 1 15.54519366580194 15.448084270911629 0 0 0 0
81 81 1 17.29442144749507 15.446798867867296 0 0 0 0
82 82 1 19.065258198896743 15.453271538431594 0 0 0 0
83 83 1 0.6831742216413034 15.453271534663854 0 0 0 0
84 84 1 2.454010953021869 15.446798867490413 0 0 0 0
85 85 1 4.2032387638627435 15.448084230520804 0 0 0 0
86 86 1 5.891428792850608 15.504355590648366 0 0 0 0
87 87 1 7.506185957307927 15.650227555286804 0 0 0 0
88 88 1 9.089840185980487 15.759953705642182 0 0 0 0
89 89 1 9.874216222588851 16.266296668908794 0 0 0 0
90 90 1 11.469292378088866 16.210457375083713 0 0 0 0
91 91 1 13.08075546591444 16.079830927216584 0 0 0 0
92 92 1 14.733275458570589 15.974298038163695 0 0 0 0
93 93 1 16.442392107810612 15.940286810054864 0 0 0 0
94 94 1 18.19053427508214 15.938451912073354 0 0 0 0
95 95 1 -0.20427335735480695 15.940109375347804 0 1 0 0
96 96 1 1.5578981589063765 15.938451912343913 0 0 0 0
97 97 1 3.306040316833266 15.940286784893367 0 0 0 0
98 98 1 5.015156999580735 15.974298029842437 0 0 0 0
99 99 1 6.667676916372892 16.079830948330574 0 0 0 0
100 100 1 8.27914004641466 16.210457347186846 0 0 0 0
101 101 1 11.497588561885388 17.211562259393794 0 0 0 0
102 102 1 13.131084519989022 17.0956889703135 0 0 0 0
103 103 1 14.78757545466173 16.990967257493136 0 0 0 0
104 104 1 16.4831878984962 16.937336501545822 0 0 0 0
105 105 1 18.210713761249696 16.918688908757574 0 0 0 0
106 106 1 -0.20427336392698206 16.914781889904344 0 1 0 0
107 107 1 1.5377186695531793 16.918688898726298 0 0 0 0
108 108 1 3.265244533775957 16.93733649469632 0 0 0 0
109 109 1 4.960856983754871 16.990967245576098 0 0 0 0
110 110 1 6.6173478699859976 17.09568893715789 0 0 0 0
111 111 1 8.250843853341118 17.211562268939627 0 0 0 0
112 112 1 9.874216199527755 17.261700496877037 0 0 0 0
113 113 1 10.688233510593253 0.2743709327483885 0 0 0 0
114 114 1 12.32256868337507 0.18555225006611406 0 0 0 0
115 115 1 13.973750722459728 0.06894718483489255 0 0 0 0
116 116 1 15.651545220498107 -0.014888252804510978 0 0 0 0
117 117 1 17.358817366072742 -0.05442739283131365 0 0 0 0
118 118 1 19.085945906488412 -0.06754758529186891 0 0 0 0
119 119 1 0.6624865114762232 -0.06754759388834217 0 0 0 0
120 120 1 2.3896150540451635 -0.0544273941215457 0 0 0 0
121 121 1 4.09688720523592 -0.014888260257294606 0 0 0 0
122 122 1 5.774681698006155 0.06894716564816934 0 0 0 0
123 123 1 7.425863781960114 0.18555223613776314 0 0 0 0
124 124 1 9.060198922395895 0.27437093766066 0 0 0 0
125 125 1 10.693731552371284 1.2880043515783763 0 0 0 0
126 126 1 12.339567618733616 1.1947602579626933 0 0 0 0
127 127 1 14.000780101163729 1.0746299633205556 0 0 0 0
128 128 1 15.68081917862732 0.9835889330921769 0 0 0 0
129 129 1 17.38035817717921 0.934102974612048 0 0 0 0
130 130 1 19.093672676303804 0.9145986978955365 0 0 0 0
131 131 1 0.6547597426932538 0.9145986977970235 0 0 0 0
132 132 1 2.368074225061572 0.9341029720565946 0 0 0 0
133 133 1 4.067613231796776 0.9835889085492746 0 0 0 0
134 134 1 5.74765232690117 1.0746299604034826 0 0 0 0
135 135 1 7.40886482582247 1.1947602550093792 0 0 0 0
136 136 1 9.054700897044684 1.2880043228823 0 0 0 0
137 137 1 9.874216202767153 1.8129535388551272 0 0 0 0
138 138 1 11.514294762287848 1.7555614342386743 0 0 0 0
139 139 1 13.172850793857835 1.6335972007377175 0 0 0 0
140 140 1 14.849261462515646 1.5208179883953037 0 0 0 0
141 141 1 16.54012566299028 1.4484397088248182 0 0 0 0
142 142 1 18.242979624904574 1.4133907939234327 0 0 0 0
143 143 1 -0.2042733669412808 1.403510688691696 0 1 0 0
144 144 1 1.505452816506216 1.4133907898482736 0 0 0 0
145 145 1 3.2083067531406777 1.4484396987154364 0 0 0 0
146 146 1 4.899170998106222 1.5208179770922698 0 0 0 0
147 147 1 6.5755816081822855 1.6335972053007481 0 0 0 0
148 148 1 8.234137654146036 1.7555614260086934 0 0 0 0
149 149 1 11.519280171042116 2.780758903323735 0 0 0 0
150 150 1 13.18597245892655 2.6333926139996118 0 0 0 0
151 151 1 14.868715152659524 2.5103566302566778 0 0 0 0
152 152 1 16.558623783833077 2.434545044425387 0 0 0 0
153 153 1 18.253956369897978 2.3974051277626285 0 0 0 0
154 154 1 -0.2042733750808612 2.3866832951746666 0 1 0 0
155 155 1 1.4944760685063216 2.3974051149515905 0 0 0 0
156 156 1 3.1898086393876786 2.434545040961382 0 0 0 0
157 157 1 4.8797172788784104 2.510356611507394 0 0 0 0
158 158 1 6.56245992979609 2.6333925771151523 0 0 0 0
159 159 1 8.229152239983154 2.78075889593216 0 0 0 0
160 160 1 9.87421619069196 2.8567681487659025 0 0 0 0
161 161 1 10.690938793204523 3.361625720104806 0 0 0 0
162 162 1 12.349189630568254 3.209453543397378 0 0 0 0
163 163 1 14.032582994866967 3.0581964399103154 0 0 0 0
164 164 1 15.721879470011697 2.9576218670264898 0 0 0 0
165 165 1 17.412858709145645 2.9030453842956945 0 0 0 0
166 166 1 19.105763009354526 2.880424749049676 0 0 0 0
167 167 1 0.6426693995043594 2.880424743862977 0 0 0 0
168 168 1 2.335573724274636 2.9030453838503765 0 0 0 0
169 169 1 4.0265529406532785 2.9576218612710456 0 0 0 0
170 170 1 5.715849430880057 3.0581964368309076 0 0 0 0
171 171 1 7.399242824276861 3.209453524772838 0 0 0 0
172 172 1 9.057493656788251 3.3616257310567876 0 0 0 0
173 173 1 10.699250315881317 4.438920652886204 0 0 0 0
174 174 1 12.364042592820363 4.214176991297383 0 0 0 0
175 175 1 14.052399379119176 4.0347006202157525 0 0 0 0
176 176 1 15.740014548356507 3.9337200580853366 0 0 0 0
177 177 1 17.425117276714744 3.8831073756635877 0 0 0 0
178 178 1 19.11005426182156 3.862780911529639 0 0 0 0
179 179 1 0.6383781418027028 3.8627809229964383 0 0 0 0
180 180 1 2.3233151363865505 3.8831073585963787 0 0 0 0
181 181 1 4.008417842304513 3.9337200393649905 0 0 0 0
182 182 1 5.696033040160115 4.034700598407974 0 0 0 0
183 183 1 7.384389838329845 4.214176962578297 0 0 0 0
184 184 1 9.049182125335163 4.4389206341654734 0 0 0 0
185 185 1 9.874216194028772 5.063225149286111 0 0 0 0
186 186 1 11.532424127837402 4.844548384360182 0 0 0 0
187 187 1 13.218559936891086 4.599053012617872 0 0 0 0
188 188 1 14.906240154018521 4.460986442768719 0 0 0 0
189 189 1 16.5896580070233 4.391132920294084 0 0 0 0
190 190 1 18.271089175856375 4.359821556148096 0 0 0 0
191 191 1 -0.20427337015279015 4.350990307289076 0 1 0 0
192 192 1 1.477343262757512 4.3598215558916875 0 0 0 0
193 193 1 3.1587744172572805 4.391132909624361 0 0 0 0
194 194 1 4.842192296920106 4.4609864385238565 0 0 0 0
195 195 1 6.529872479605368 4.599053006371871 0 0 0 0
196 196 1 8.216008282062335 4.844548372614504 0 0 0 0
197 197 1 11.598975690981273 5.872970583391714 0 0 0 0
198 198 1 13.256456185141804 5.55527768319034 0 0 0 0
199 199 1 14.928601091766883 5.421549100107913 0 0 0 0
200 200 1 16.602099083898214 5.362680787135047 0 0 0 0
201 201 1 18.276555210769704 5.338956867604907 0 0 0 0
202 202 1 -0.2042733708759045 5.332589948648322 0 1 0 0
203 203 1 1.471877218786805 5.338956848542445 0 0 0 0
204 204 1 3.146333329483783 5.362680775864702 0 0 0 0
205 205 1 4.819831340148278 5.421549065552113 0 0 0 0
206 206 1 6.491976184277157 5.555277661819451 0 0 0 0
207 207 1 8.149456720076554 5.872970583555696 0 0 0 0
208 208 1 9.874216189234835 6.267625941625688 0 0 0 0
209 209 1 10.935643835543395 6.728822309277383 0 0 0 0
210 210 1 12.450342068539593 6.151163060694417 0 0 0 0
211 211 1 14.102923015483148 5.9501392696293545 0 0 0 0
212 212 1 15.770660359558159 5.867543510380889 0 0 0 0
213 213 1 17.44108660385859 5.834875110162448 0 0 0 0
214 214 1 19.114904016288136 5.82341168652645 0 0 0 0
215 215 1 0.6335284097075357 5.823411672395106 0 0 0 0
216 216 1 2.3073458208022206 5.834875109981116 0 0 0 0
217 217 1 3.977772067425583 5.867543509260896 0 0 0 0
218 218 1 5.645509416581898 5.950139249512607 0 0 0 0
219 219 1 7.298090364019343 6.15116308336062 0 0 0 0
220 220 1 8.812788604604147 6.728822316465224 0 0 0 0
221 221 1 12.502121665837569 7.081739608274578 0 0 0 0
222 222 1 14.121841463316263 6.889215297006294 0 0 0 0
223 223 1 15.775401119355761 6.8261695003204315 0 0 0 0
224 224 1 17.440562783856503 6.807944064362405 0 0 0 0
225 225 1 19.114166791767865 6.802550291514774 0 0 0 0
226 226 1 0.6342656211357067 6.802550290666963 0 0 0 0
227 227 1 2.3078696288240477 6.807944040845241 0 0 0 0
228 228 1 3.973031263118645 6.826169474779127 0 0 0 0
229 229 1 5.62659094930017 6.889215281016416 0 0 0 0
230 230 1 7.246310768170205 7.081739561920675 0 0 0 0
231 231 1 11.706092311050739 7.7131281609142395 0 0 0 0
232 232 1 13.301166051971068 7.418731523335389 0 0 0 0
233 233 1 14.942089773705968 7.319963219738008 0 0 0 0
234 234 1 16.600786363220156 7.29664291706095 0 0 0 0
235 235 1 18.272638807996138 7.29131319109189 0 0 0 0
236 236 1 -0.20427335701044244 7.290044051245567 0 1 0 0
237 237 1 1.4757936272438652 7.291313197105327 0 0 0 0
238 238 1 3.1476460826746644 7.296642896388871 0 0 0 0
239 239 1 4.806342673907553 7.31996323849189 0 0 0 0
240 240 1 6.447266369028649 7.41873151964939 0 0 0 0
241 241 1 8.042340111884496 7.713128105321945 0 0 0 0
242 242 1 13.272073326268186 8.304405487494922 0 0 0 0
243 243 1 14.913555837753057 8.253871124382794 0 0 0 0
244 244 1 16.578008774195098 8.258839843106696 0 0 0 0
245 245 1 18.260044476173615 8.26437001794259 0 0 0 0
246 246 1 -0.20427335931786147 8.265514702928874 0 1 0 0
247 247 1 1.4883879312566748 8.26436999589835 0 0 0 0
248 248 1 3.1704236576219107 8.258839844156231 0 0 0 0
249 249 1 4.83487657128534 8.253871075713041 0 0 0 0
250 250 1 6.476359039807962 8.304405479446235 0 0 0 0
251 251 1 12.403306517183252 8.810408878725363 0 0 0 0
252 252 1 14.052160565860346 8.715622160756608 0 0 0 0
253 253 1 15.717456084345585 8.729535191587344 0 0 0 0
254 254 1 17.400632423814862 8.745266696403668 0 0 0 0
255 255 1 19.10031282585392 8.75065678213303 0 0 0 0
256 256 1 0.6481195999730671 8.750656750764602 0 0 0 0
257 257 1 2.3478000220980806 8.74526671835725 0 0 0 0
258 258 1 4.0309763305960935 8.729535177670066 0 0 0 0
259 259 1 5.696271884053836 8.715622126637918 0 0 0 0
260 260 1 7.345125910748997 8.810408904652496 0 0 0 0

Velocities

1 0 0 0
2 0 0 0
3 0 0 0
4 0 0 0
5 0 0 0
6 0 0 0
7 0 0 0
8 0 0 0
9 0 0 0
10 0 0 0
11 0 0 0
12 0 0 0
13 0 0 0
14 0 0 0
15 0 0 0
16 0 0 0
17 0 0 0
18 0 0 0
19 0 0 0
20 0 0 0
21 0 0 0
22 0 0 0
23 0 0 0
24 0 0 0
25 0 0 0
26 0 0 0
27 0 0 0
28 0 0 0
29 0 0 0
30 0 0 0
31 0 0 0
32 0 0 0
33 0 0 0
34 0 0 0
35 0 0 0
36 0 0 0
37 0 0 0
38 0 0 0
39 0 0 0
40 0 0 0
41 0 0 0
42 0 0 0
43 0 0 0
44 0 0 0
45 0 0 0
46 0 0 0
47 0 0 0
48 0 0 0
49 0 0 0
50 0 0 0
51 0 0 0
52 0 0 0
53 0 0 0
54 0 0 0
55 0 0 0
56 0 0 0
57 0 0 0
58 0 0 0
59 0 0 0
60 0 0 0
61 0 0 0
62 0 0 0
63 0 0 0
64 0 0 0
65 0 0 0
66 0 0 0
67 0 0 0
68 0 0 0
69 0 0 0
70 0 0 0
71 0 0 0
72 0 0 0
73 0 0 0
74 0 0 0
75 0 0 0
76 0 0 0
77 0 0 0
78 0 0 0
79 0 0 0
80 0 0 0
81 0 0 0
82 0 0 0
83 0 0 0
84 0 0 0
85 0 0 0
86 0 0 0
87 0 0 0
88 0 0 0
89 0 0 0
90 0 0 0
91 0 0 0
92 0 0 0
93 0 0 0
94 0 0 0
95 0 0 0
96 0 0 0
97 0 0 0
98 0 0 0
99 0 0 0
100 0 0 0
101 0 0 0
102 0 0 0
103 0 0 0
104 0 0 0
105 0 0 0
106 0 0 0
107 0 0 0
108 0 0 0
109 0 0 0
110 0 0 0
111 0 0 0
112 0 0 0
113 0 0 0
114 0 0 0
115 0 0 0
116 0 0 0
117 0 0 0
118 0 0 0
119 0 0 0
120 0 0 0
121 0 0 0
122 0 0 0
123 0 0 0
124 0 0 0
125 0 0 0
126 0 0 0
127 0 0 0
128 0 0 0
129 0 0 0
130 0 0 0
131 0 0 0
132 0 0 0
133 0 0 0
134 0 0 0
135 0 0 0
136 0 0 0
137 0 0 0
138 0 0 0
139 0 0 0
140 0 0 0
141 0 0 0
142 0 0 0
143 0 0 0
144 0 0 0
145 0 0 0
146 0 0 0
147 0 0 0
148 0 0 0
149 0 0 0
150 0 0 0
151 0 0 0
152 0 0 0
153 0 0 0
154 0 0 0
155 0 0 0
156 0 0 0
157 0 0 0
158 0 0 0
159 0 0 0
160 0 0 0
161 0 0 0
162 0 0 0
163 0 0 0
164 0 0 0
165 0 0 0
166 0 0 0
167 0 0 0
168 0 0 0
169 0 0 0
170 0 0 0
171 0 0 0
172 0 0 0
173 0 0 0
174 0 0 0
175 0 0 0
176 0 0 0
177 0 0 0
178 0 0 0
179 0 0 0
180 0 0 0
181 0 0 0
182 0 0 0
183 0 0 0
184 0 0 0
185 0 0 0
186 0 0 0
187 0 0 0
188 0 0 0
189 0 0 0
190 0 0 0
191 0 0 0
192 0 0 0
193 0 0 0
194 0 0 0
195 0 0 0
196 0 0 0
197 0 0 0
198 0 0 0
199 0 0 0
200 0 0 0
201 0 0 0
202 0 0 0
203 0 0 0
204 0 0 0
205 0 0 0
206 0 0 0
207 0 0 0
208 0 0 0
209 0 0 0
210 0 0 0
211 0 0 0
212 0 0 0
213 0 0 0
214 0 0 0
215 0 0 0
216 0 0 0
217 0 0 0
218 0 0 0
219 0 0 0
220 0 0 0
221 0 0 0
222 0 0 0
223 0 0 0
224 0 0 0
225 0 0 0
226 0 0 0
227 0 0 0
228 0 0 0
229 0 0 0
230 0 0 0
231 0 0 0
232 0 0 0
233 0 0 0
234 0 0 0
235 0 0 0
236 0 0 0
237 0 0 0
238 0 0 0
239 0 0 0
240 0 0 0
241 0 0 0
242 0 0 0
243 0 0 0
244 0 0 0
245 0 0 0
246 0 0 0
247 0 0 0
248 0 0 0
249 0 0 0
250 0 0 0
251 0 0 0
252 0 0 0
253 0 0 0
254 0 0 0
255 0 0 0
256 0 0 0
257 0 0 0
258 0 0 0
259 0 0 0
260 0 0 0

Bonds

1 1 1 9
2 1 1 10
3 1 1 252
4 1 2 10
5 1 2 11
6 1 2 253
7 1 3 11
8 1 3 12
9 1 3 254
10 1 4 12
11 1 4 13
12 1 4 255
13 1 5 13
14 1 5 14
15 1 5 256
16 1 6 14
17 1 6 15
18 1 6 257
19 1 7 15
20 1 7 16
21 1 7 258
22 1 8 16
23 1 8 17
24 1 8 259
25 1 9 25
26 1 9 251
27 1 10 18
28 1 11 19
29 1 12 20
30 1 13 21
31 1 14 22
32 1 15 23
33 1 16 24
34 1 17 260
35 1 17 32
36 1 18 25
37 1 18 26
38 1 19 26
39 1 19 27
40 1 20 27
41 1 20 28
42 1 21 28
43 1 21 29
44 1 22 29
45 1 22 30
46 1 23 30
47 1 23 31
48 1 24 31
49 1 24 32
50 1 25 33
51 1 26 34
52 1 27 35
53 1 28 36
54 1 29 37
55 1 30 38
56 1 31 39
57 1 32 40
58 1 33 43
59 1 33 44
60 1 34 44
61 1 34 45
62 1 35 45
63 1 35 46
64 1 36 46
65 1 36 47
66 1 37 47
67 1 37 48
68 1 38 48
69 1 38 49
70 1 39 49
71 1 39 50
72 1 40 50
73 1 40 51
74 1 41 64
75 1 41 52
76 1 41 42
77 1 42 53
78 1 42 43
79 1 43 54
80 1 44 55
81 1 45 56
82 1 46 57
83 1 47 58
84 1 48 59
85 1 49 60
86 1 50 61
87 1 51 62
88 1 51 52
89 1 52 63
90 1 53 65
91 1 53 66
92 1 54 66
93 1 54 67
94 1 55 67
95 1 55 68
96 1 56 68
97 1 56 69
98 1 57 69
99 1 57 70
100 1 58 70
101 1 58 71
102 1 59 71
103 1 59 72
104 1 60 72
105 1 60 73
106 1 61 73
107 1 61 74
108 1 62 74
109 1 62 75
110 1 63 75
111 1 63 76
112 1 64 76
113 1 64 65
114 1 65 77
115 1 66 78
116 1 67 79
117 1 68 80
118 1 69 81
119 1 70 82
120 1 71 83
121 1 72 84
122 1 73 85
123 1 74 86
124 1 75 87
125 1 76 88
126 1 77 89
127 1 77 90
128 1 78 90
129 1 78 91
130 1 79 91
131 1 79 92
132 1 80 92
133 1 80 93
134 1 81 93
135 1 81 94
136 1 82 94
137 1 82 95
138 1 83 95
139 1 83 96
140 1 84 96
141 1 84 97
142 1 85 97
143 1 85 98
144 1 86 98
145 1 86 99
146 1 87 99
147 1 87 100
148 1 88 100
149 1 88 89
150 1 89 112
151 1 90 101
152 1 91 102
153 1 92 103
154 1 93 104
155 1 94 105
156 1 95 106
157 1 96 107
158 1 97 108
159 1 98 109
160 1 99 110
161 1 100 111
162 1 101 113
163 1 101 114
164 1 102 114
165 1 102 115
166 1 103 115
167 1 103 116
168 1 104 116
169 1 104 117
170 1 105 117
171 1 105 118
172 1 106 118
173 1 106 119
174 1 107 119
175 1 107 120
176 1 108 120
177 1 108 121
178 1 109 121
179 1 109 122
180 1 110 122
181 1 110 123
182 1 111 123
183 1 111 124
184 1 112 124
185 1 112 113
186 1 113 125
187 1 114 126
188 1 115 127
189 1 116 128
190 1 117 129
191 1 118 130
192 1 119 131
193 1 120 132
194 1 121 133
195 1 122 134
196 1 123 135
197 1 124 136
198 1 125 137
199 1 125 138
200 1 126 138
201 1 126 139
202 1 127 139
203 1 127 140
204 1 128 140
205 1 128 141
206 1 129 141
207 1 129 142
208 1 130 142
209 1 130 143
210 1 131 143
211 1 131 144
212 1 132 144
213 1 132 145
214 1 133 145
215 1 133 146
216 1 134 146
217 1 134 147
218 1 135 147
219 1 135 148
220 1 136 148
221 1 136 137
222 1 137 160
223 1 138 149
224 1 139 150
225 1 140 151
226 1 141 152
227 1 142 153
228 1 143 154
229 1 144 155
230 1 145 156
231 1 146 157
232 1 147 158
233 1 148 159
234 1 149 161
235 1 149 162
236 1 150 162
237 1 150 163
238 1 151 163
239 1 151 164
240 1 152 164
241 1 152 165
242 1 153 165
243 1 153 166
244 1 154 166
245 1 154 167
246 1 155 167
247 1 155 168
248 1 156 168
249 1 156 169
250 1 157 169
251 1 157 170
252 1 158 170
253 1 158 171
254 1 159 171
255 1 159 172
256 1 160 172
257 1 160 161
258 1 161 173
259 1 162 174
260 1 163 175
261 1 164 176
262 1 165 177
263 1 166 178
264 1 167 179
265 1 168 180
266 1 169 181
267 1 170 182
268 1 171 183
269 1 172 184
270 1 173 185
271 1 173 186
272 1 174 186
273 1 174 187
274 1 175 187
275 1 175 188
276 1 176 188
277 1 176 189
278 1 177 189
279 1 177 190
280 1 178 190
281 1 178 191
282 1 179 191
283 1 179 192
284 1 180 192
285 1 180 193
286 1 181 193
287 1 181 194
288 1 182 194
289 1 182 195
290 1 183 195
291 1 183 196
292 1 184 196
293 1 184 185
294 1 185 208
295 1 186 197
296 1 187 198
297 1 188 199
298 1 189 200
299 1 190 201
300 1 191 202
301 1 192 203
302 1 193 204
303 1 194 205
304 1 195 206
305 1 196 207
306 1 197 209
307 1 197 210
308 1 198 210
309 1 198 211
310 1 199 211
311 1 199 212
312 1 200 212
313 1 200 213
314 1 201 213
315 1 201 214
316 1 202 214
317 1 202 215
318 1 203 215
319 1 203 216
320 1 204 216
321 1 204 217
322 1 205 217
323 1 205 218
324 1 206 218
325 1 206 219
326 1 207 219
327 1 207 220
328 1 208 220
329 1 208 209
330 1 209 231
331 1 210 221
332 1 211 222
333 1 212 223
334 1 213 224
335 1 214 225
336 1 215 226
337 1 216 227
338 1 217 228
339 1 218 229
340 1 219 230
341 1 220 241
342 1 221 231
343 1 221 232
344 1 222 232
345 1 222 233
346 1 223 233
347 1 223 234
348 1 224 234
349 1 224 235
350 1 225 235
351 1 225 236
352 1 226 236
353 1 226 237
354 1 227 237
355 1 227 238
356 1 228 238
357 1 228 239
358 1 229 239
359 1 229 240
360 1 230 240
361 1 230 241
362 1 231 251
363 1 232 242
364 1 233 243
365 1 234 244
366 1 235 245
367 1 236 246
368 1 237 247
369 1 238 248
370 1 239 249
371 1 240 250
372 1 241 260
373 1 242 252
374 1 242 251
375 1 243 253
376 1 243 252
377 1 244 254
378 1 244 253
379 1 245 255
380 1 245 254
381 1 246 256
382 1 246 255
383 1 247 257
384 1 247 256
385 1 248 258
386 1 248 257
387 1 249 259
388 1 249 258
389 1 250 260
390 1 250 259

Angles

1 1 9 1 10
2 1 9 1 252
3 1 10 1 252
4 1 10 2 11
5 1 10 2 253
6 1 11 2 253
7 1 11 3 12
8 1 11 3 254
9 1 12 3 254
10 1 12 4 13
11 1 12 4 255
12 1 13 4 255
13 1 13 5 14
14 1 13 5 256
15 1 14 5 256
16 1 14 6 15
17 1 14 6 257
18 1 15 6 257
19 1 15 7 16
20 1 15 7 258
21 1 16 7 258
22 1 16 8 17
23 1 16 8 259
24 1 17 8 259
25 1 1 9 25
26 1 1 9 251
27 1 25 9 251
28 1 1 10 18
29 1 1 10 2
30 1 18 10 2
31 1 2 11 19
32 1 2 11 3
33 1 19 11 3
34 1 3 12 20
35 1 3 12 4
36 1 20 12 4
37 1 4 13 21
38 1 4 13 5
39 1 21 13 5
40 1 5 14 22
41 1 5 14 6
42 1 22 14 6
43 1 6 15 23
44 1 6 15 7
45 1 23 15 7
46 1 7 16 24
47 1 7 16 8
48 1 24 16 8
49 1 8 17 260
50 1 8 17 32
51 1 260 17 32
52 1 25 18 26
53 1 25 18 10
54 1 26 18 10
55 1 26 19 27
56 1 26 19 11
57 1 27 19 11
58 1 27 20 28
59 1 27 20 12
60 1 28 20 12
61 1 28 21 29
62 1 28 21 13
63 1 29 21 13
64 1 29 22 30
65 1 29 22 14
66 1 30 22 14
67 1 30 23 31
68 1 30 23 15
69 1 31 23 15
70 1 31 24 32
71 1 31 24 16
72 1 32 24 16
73 1 33 25 18
74 1 33 25 9
75 1 18 25 9
76 1 18 26 34
77 1 18 26 19
78 1 34 26 19
79 1 19 27 35
80 1 19 27 20
81 1 35 27 20
82 1 20 28 36
83 1 20 28 21
84 1 36 28 21
85 1 21 29 37
86 1 21 29 22
87 1 37 29 22
88 1 22 30 38
89 1 22 30 23
90 1 38 30 23
91 1 23 31 39
92 1 23 31 24
93 1 39 31 24
94 1 24 32 40
95 1 24 32 17
96 1 40 32 17
97 1 43 33 44
98 1 43 33 25
99 1 44 33 25
100 1 44 34 45
101 1 44 34 26
102 1 45 34 26
103 1 45 35 46
104 1 45 35 27
105 1 46 35 27
106 1 46 36 47
107 1 46 36 28
108 1 47 36 28
109 1 47 37 48
110 1 47 37 29
111 1 48 37 29
112 1 48 38 49
113 1 48 38 30
114 1 49 38 30
115 1 49 39 50
116 1 49 39 31
117 1 50 39 31
118 1 50 40 51
119 1 50 40 32
120 1 51 40 32
121 1 64 41 52
122 1 64 41 42
123 1 52 41 42
124 1 53 42 41
125 1 53 42 43
126 1 41 42 43
127 1 54 43 33
128 1 54 43 42
129 1 33 43 42
130 1 33 44 55
131 1 33 44 34
132 1 55 44 34
133 1 34 45 56
134 1 34 45 35
135 1 56 45 35
136 1 35 46 57
137 1 35 46 36
138 1 57 46 36
139 1 36 47 58
140 1 36 47 37
141 1 58 47 37
142 1 37 48 59
143 1 37 48 38
144 1 59 48 38
145 1 38 49 60
146 1 38 49 39
147 1 60 49 39
148 1 39 50 61
149 1 39 50 40
150 1 61 50 40
151 1 40 51 62
152 1 40 51 52
153 1 62 51 52
154 1 63 52 51
155 1 63 52 41
156 1 51 52 41
157 1 65 53 66
158 1 65 53 42
159 1 66 53 42
160 1 66 54 67
161 1 66 54 43
162 1 67 54 43
163 1 67 55 68
164 1 67 55 44
165 1 68 55 44
166 1 68 56 69
167 1 68 56 45
168 1 69 56 45
169 1 69 57 70
170 1 69 57 46
171 1 70 57 46
172 1 70 58 71
173 1 70 58 47
174 1 71 58 47
175 1 71 59 72
176 1 71 59 48
177 1 72 59 48
178 1 72 60 73
179 1 72 60 49
180 1 73 60 49
181 1 73 61 74
182 1 73 61 50
183 1 74 61 50
184 1 74 62 75
185 1 74 62 51
186 1 75 62 51
187 1 75 63 76
188 1 75 63 52
189 1 76 63 52
190 1 41 64 76
191 1 41 64 65
192 1 76 64 65
193 1 64 65 77
194 1 64 65 53
195 1 77 65 53
196 1 53 66 78
197 1 53 66 54
198 1 78 66 54
199 1 54 67 79
200 1 54 67 55
201 1 79 67 55
202 1 55 68 80
203 1 55 68 56
204 1 80 68 56
205 1 56 69 81
206 1 56 69 57
207 1 81 69 57
208 1 57 70 82
209 1 57 70 58
210 1 82 70 58
211 1 58 71 83
212 1 58 71 59
213 1 83 71 59
214 1 59 72 84
215 1 59 72 60
216 1 84 72 60
217 1 60 73 85
218 1 60 73 61
219 1 85 73 61
220 1 61 74 86
221 1 61 74 62
222 1 86 74 62
223 1 62 75 87
224 1 62 75 63
225 1 87 75 63
226 1 63 76 88
227 1 63 76 64
228 1 88 76 64
229 1 89 77 90
230 1 89 77 65
231 1 90 77 65
232 1 90 78 91
233 1 90 78 66
234 1 91 78 66
235 1 91 79 92
236 1 91 79 67
237 1 92 79 67
238 1 92 80 93
239 1 92 80 68
240 1 93 80 68
241 1 93 81 94
242 1 93 81 69
243 1 94 81 69
244 1 94 82 95
245 1 94 82 70
246 1 95 82 70
247 1 95 83 96
248 1 95 83 71
249 1 96 83 71
250 1 96 84 97
251 1 96 84 72
252 1 97 84 72
253 1 97 85 98
254 1 97 85 73
255 1 98 85 73
256 1 98 86 99
257 1 98 86 74
258 1 99 86 74
259 1 99 87 100
260 1 99 87 75
261 1 100 87 75
262 1 76 88 100
263 1 76 88 89
264 1 100 88 89
265 1 88 89 112
266 1 88 89 77
267 1 112 89 77
268 1 77 90 101
269 1 77 90 78
270 1 101 90 78
271 1 78 91 102
272 1 78 91 79
273 1 102 91 79
274 1 79 92 103
275 1 79 92 80
276 1 103 92 80
277 1 80 93 104
278 1 80 93 81
279 1 104 93 81
280 1 81 94 105
281 1 81 94 82
282 1 105 94 82
283 1 82 95 106
284 1 82 95 83
285 1 106 95 83
286 1 83 96 107
287 1 83 96 84
288 1 107 96 84
289 1 84 97 108
290 1 84 97 85
291 1 108 97 85
292 1 85 98 109
293 1 85 98 86
294 1 109 98 86
295 1 86 99 110
296 1 86 99 87
297 1 110 99 87
298 1 87 100 111
299 1 87 100 88
300 1 111 100 88
301 1 113 101 114
302 1 113 101 90
303 1 114 101 90
304 1 114 102 115
305 1 114 102 91
306 1 115 102 91
307 1 115 103 116
308 1 115 103 92
309 1 116 103 92
310 1 116 104 117
311 1 116 104 93
312 1 117 104 93
313 1 117 105 118
314 1 117 105 94
315 1 118 105 94
316 1 118 106 119
317 1 118 106 95
318 1 119 106 95
319 1 119 107 120
320 1 119 107 96
321 1 120 107 96
322 1 120 108 121
323 1 120 108 97
324 1 121 108 97
325 1 121 109 122
326 1 121 109 98
327 1 122 109 98
328 1 122 110 123
329 1 122 110 99
330 1 123 110 99
331 1 123 111 124
332 1 123 111 100
333 1 124 111 100
334 1 89 112 124
335 1 89 112 113
336 1 124 112 113
337 1 112 113 125
338 1 112 113 101
339 1 125 113 101
340 1 101 114 126
341 1 101 114 102
342 1 126 114 102
343 1 102 115 127
344 1 102 115 103
345 1 127 115 103
346 1 103 116 128
347 1 103 116 104
348 1 128 116 104
349 1 104 117 129
350 1 104 117 105
351 1 129 117 105
352 1 105 118 130
353 1 105 118 106
354 1 130 118 106
355 1 106 119 131
356 1 106 119 107
357 1 131 119 107
358 1 107 120 132
359 1 107 120 108
360 1 132 120 108
361 1 108 121 133
362 1 108 121 109
363 1 133 121 109
364 1 109 122 134
365 1 109 122 110
366 1 134 122 110
367 1 110 123 135
368 1 110 123 111
369 1 135 123 111
370 1 111 124 136
371 1 111 124 112
372 1 136 124 112
373 1 137 125 138
374 1 137 125 113
375 1 138 125 113
376 1 138 126 139
377 1 138 126 114
378 1 139 126 114
379 1 139 127 140
380 1 139 127 115
381 1 140 127 115
382 1 140 128 141
383 1 140 128 116
384 1 141 128 116
385 1 141 129 142
386 1 141 129 117
387 1 142 129 117
388 1 142 130 143
389 1 142 130 118
390 1 143 130 118
391 1 143 131 144
392 1 143 131 119
393 1 144 131 119
394 1 144 132 145
395 1 144 132 120
396 1 145 132 120
397 1 145 133 146
398 1 145 133 121
399 1 146 133 121
400 1 146 134 147
401 1 146 134 122
402 1 147 134 122
403 1 147 135 148
404 1 147 135 123
405 1 148 135 123
406 1 124 136 148
407 1 124 136 137
408 1 148 136 137
409 1 136 137 160
410 1 136 137 125
411 1 160 137 125
412 1 125 138 149
413 1 125 138 126
414 1 149 138 126
415 1 126 139 150
416 1 126 139 127
417 1 150 139 127
418 1 127 140 151
419 1 127 140 128
420 1 151 140 128
421 1 128 141 152
422 1 128 141 129
423 1 152 141 129
424 1 129 142 153
425 1 129 142 130
426 1 153 142 130
427 1 130 143 154
428 1 130 143 131
429 1 154 143 131
430 1 131 144 155
431 1 131 144 132
432 1 155 144 132
433 1 132 145 156
434 1 132 145 133
435 1 156 145 133
436 1 133 146 157
437 1 133 146 134
438 1 157 146 134
439 1 134 147 158
440 1 134 147 135
441 1 158 147 135
442 1 135 148 159
443 1 135 148 136
444 1 159 148 136
445 1 161 149 162
446 1 161 149 138
447 1 162 149 138
448 1 162 150 163
449 1 162 150 139
450 1 163 150 139
451 1 163 151 164
452 1 163 151 140
453 1 164 151 140
454 1 164 152 165
455 1 164 152 141
456 1 165 152 141
457 1 165 153 166
458 1 165 153 142
459 1 166 153 142
460 1 166 154 167
461 1 166 154 143
462 1 167 154 143
463 1 167 155 168
464 1 167 155 144
465 1 168 155 144
466 1 168 156 169
467 1 168 156 145
468 1 169 156 145
469 1 169 157 170
470 1 169 157 146
471 1 170 157 146
472 1 170 158 171
473 1 170 158 147
474 1 171 158 147
475 1 171 159 172
476 1 171 159 148
477 1 172 159 148
478 1 137 160 172
479 1 137 160 161
480 1 172 160 161
481 1 160 161 173
482 1 160 161 149
483 1 173 161 149
484 1 149 162 174
485 1 149 162 150
486 1 174 162 150
487 1 150 163 175
488 1 150 163 151
489 1 175 163 151
490 1 151 164 176
491 1 151 164 152
492 1 176 164 152
493 1 152 165 177
494 1 152 165 153
495 1 177 165 153
496 1 153 166 178
497 1 153 166 154
498 1 178 166 154