DATA FILE Produced from netmc results (cf David Morley)
1560 atoms
5200 bonds
0 angles
0 dihedrals
0 impropers
2 atom types
0 bond types
2 bond types
0 angle types
0 dihedral types
0 improper types
0.00000 113.22464183605861 xlo xhi
0.00000 98.05541470583547 ylo yhi
0.0000 200.0000 zlo zhi

# Pair Coeffs
#
# 1  O
# 2  Si

# Bond Coeffs
# 
# 1  O-O
# 2  Si-O
# 3  O-O rep
# 4  Si-Si rep

 Masses

1 28.10000 # O 
2 32.01000 # Si

 Atoms # molecular

1    1    2    80.20061319251067        55.83711115193409        5.0                      # Si
2    2    2    80.20061319251067        55.83711115193409        11.081138669036534       # Si
3    3    2    89.63626784873165        55.83711115193409        5.0                      # Si
4    4    2    89.63626784873165        55.83711115193409        11.081138669036534       # Si
5    5    2    99.0713777526487         55.83711115193409        5.0                      # Si
6    6    2    99.0713777526487         55.83711115193409        11.081138669036534       # Si
7    7    2    108.5070324088697        55.83711115193409        5.0                      # Si
8    8    2    108.5070324088697        55.83711115193409        11.081138669036534       # Si
9    9    2    4.717554951958529        55.83711115193409        5.0                      # Si
10   10   2    4.717554951958529        55.83711115193409        11.081138669036534       # Si
11   11   2    14.153209608179507       55.83711115193409        5.0                      # Si
12   12   2    14.153209608179507       55.83711115193409        11.081138669036534       # Si
13   13   2    23.58831951209656        55.83711115193409        5.0                      # Si
14   14   2    23.58831951209656        55.83711115193409        11.081138669036534       # Si
15   15   2    33.02397416831754        55.83711115193409        5.0                      # Si
16   16   2    33.02397416831754        55.83711115193409        11.081138669036534       # Si
17   17   2    75.48305824055215        58.56087267154063        5.0                      # Si
18   18   2    75.48305824055215        58.56087267154063        11.081138669036534       # Si
19   19   2    84.91871289677312        58.56087267154063        5.0                      # Si
20   20   2    84.91871289677312        58.56087267154063        11.081138669036534       # Si
21   21   2    94.35382280069017        58.56087267154063        5.0                      # Si
22   22   2    94.35382280069017        58.56087267154063        11.081138669036534       # Si
23   23   2    103.78947745691117       58.56087267154063        5.0                      # Si
24   24   2    103.78947745691117       58.56087267154063        11.081138669036534       # Si
25   25   2    113.22458736082822       58.56087267154063        5.0                      # Si
26   26   2    113.22458736082822       58.56087267154063        11.081138669036534       # Si
27   27   2    9.43565465622098         58.56087267154063        5.0                      # Si
28   28   2    9.43565465622098         58.56087267154063        11.081138669036534       # Si
29   29   2    18.87076456013804        58.56087267154063        5.0                      # Si
30   30   2    18.87076456013804        58.56087267154063        11.081138669036534       # Si
31   31   2    28.306419216359014       58.56087267154063        5.0                      # Si
32   32   2    28.306419216359014       58.56087267154063        11.081138669036534       # Si
33   33   2    37.74152912027608        58.56087267154063        5.0                      # Si
34   34   2    37.74152912027608        58.56087267154063        11.081138669036534       # Si
35   35   2    84.91871289677312        64.0083957107537         5.0                      # Si
36   36   2    84.91871289677312        64.0083957107537         11.081138669036534       # Si
37   37   2    94.35382280069017        64.0083957107537         5.0                      # Si
38   38   2    94.35382280069017        64.0083957107537         11.081138669036534       # Si
39   39   2    103.78947745691117       64.0083957107537         5.0                      # Si
40   40   2    103.78947745691117       64.0083957107537         11.081138669036534       # Si
41   41   2    113.22458736082822       64.0083957107537         5.0                      # Si
42   42   2    113.22458736082822       64.0083957107537         11.081138669036534       # Si
43   43   2    9.43565465622098         64.0083957107537         5.0                      # Si
44   44   2    9.43565465622098         64.0083957107537         11.081138669036534       # Si
45   45   2    18.87076456013804        64.0083957107537         5.0                      # Si
46   46   2    18.87076456013804        64.0083957107537         11.081138669036534       # Si
47   47   2    28.306419216359014       64.0083957107537         5.0                      # Si
48   48   2    28.306419216359014       64.0083957107537         11.081138669036534       # Si
49   49   2    80.20061319251067        66.73215723036024        5.0                      # Si
50   50   2    80.20061319251067        66.73215723036024        11.081138669036534       # Si
51   51   2    89.63626784873165        66.73215723036024        5.0                      # Si
52   52   2    89.63626784873165        66.73215723036024        11.081138669036534       # Si
53   53   2    99.0713777526487         66.73215723036024        5.0                      # Si
54   54   2    99.0713777526487         66.73215723036024        11.081138669036534       # Si
55   55   2    108.5070324088697        66.73215723036024        5.0                      # Si
56   56   2    108.5070324088697        66.73215723036024        11.081138669036534       # Si
57   57   2    4.717554951958529        66.73215723036024        5.0                      # Si
58   58   2    4.717554951958529        66.73215723036024        11.081138669036534       # Si
59   59   2    14.153209608179507       66.73215723036024        5.0                      # Si
60   60   2    14.153209608179507       66.73215723036024        11.081138669036534       # Si
61   61   2    23.58831951209656        66.73215723036024        5.0                      # Si
62   62   2    23.58831951209656        66.73215723036024        11.081138669036534       # Si
63   63   2    33.02397416831754        66.73215723036024        5.0                      # Si
64   64   2    33.02397416831754        66.73215723036024        11.081138669036534       # Si
65   65   2    80.20061319251067        72.17968026957334        5.0                      # Si
66   66   2    80.20061319251067        72.17968026957334        11.081138669036534       # Si
67   67   2    89.63626784873165        72.17968026957334        5.0                      # Si
68   68   2    89.63626784873165        72.17968026957334        11.081138669036534       # Si
69   69   2    99.0713777526487         72.17968026957334        5.0                      # Si
70   70   2    99.0713777526487         72.17968026957334        11.081138669036534       # Si
71   71   2    108.5070324088697        72.17968026957334        5.0                      # Si
72   72   2    108.5070324088697        72.17968026957334        11.081138669036534       # Si
73   73   2    4.717554951958529        72.17968026957334        5.0                      # Si
74   74   2    4.717554951958529        72.17968026957334        11.081138669036534       # Si
75   75   2    14.153209608179507       72.17968026957334        5.0                      # Si
76   76   2    14.153209608179507       72.17968026957334        11.081138669036534       # Si
77   77   2    23.58831951209656        72.17968026957334        5.0                      # Si
78   78   2    23.58831951209656        72.17968026957334        11.081138669036534       # Si
79   79   2    33.02397416831754        72.17968026957334        5.0                      # Si
80   80   2    33.02397416831754        72.17968026957334        11.081138669036534       # Si
81   81   2    56.61229368041411        74.90344178917988        5.0                      # Si
82   82   2    56.61229368041411        74.90344178917988        11.081138669036534       # Si
83   83   2    66.04794833663507        74.90344178917988        5.0                      # Si
84   84   2    66.04794833663507        74.90344178917988        11.081138669036534       # Si
85   85   2    75.48305824055215        74.90344178917988        5.0                      # Si
86   86   2    75.48305824055215        74.90344178917988        11.081138669036534       # Si
87   87   2    84.91871289677312        74.90344178917988        5.0                      # Si
88   88   2    84.91871289677312        74.90344178917988        11.081138669036534       # Si
89   89   2    94.35382280069017        74.90344178917988        5.0                      # Si
90   90   2    94.35382280069017        74.90344178917988        11.081138669036534       # Si
91   91   2    103.78947745691117       74.90344178917988        5.0                      # Si
92   92   2    103.78947745691117       74.90344178917988        11.081138669036534       # Si
93   93   2    113.22458736082822       74.90344178917988        5.0                      # Si
94   94   2    113.22458736082822       74.90344178917988        11.081138669036534       # Si
95   95   2    9.43565465622098         74.90344178917988        5.0                      # Si
96   96   2    9.43565465622098         74.90344178917988        11.081138669036534       # Si
97   97   2    18.87076456013804        74.90344178917988        5.0                      # Si
98   98   2    18.87076456013804        74.90344178917988        11.081138669036534       # Si
99   99   2    28.306419216359014       74.90344178917988        5.0                      # Si
100  100  2    28.306419216359014       74.90344178917988        11.081138669036534       # Si
101  101  2    37.74152912027608        74.90344178917988        5.0                      # Si
102  102  2    37.74152912027608        74.90344178917988        11.081138669036534       # Si
103  103  2    47.17718377649705        74.90344178917988        5.0                      # Si
104  104  2    47.17718377649705        74.90344178917988        11.081138669036534       # Si
105  105  2    66.04794833663507        80.35096482839295        5.0                      # Si
106  106  2    66.04794833663507        80.35096482839295        11.081138669036534       # Si
107  107  2    75.48305824055215        80.35096482839295        5.0                      # Si
108  108  2    75.48305824055215        80.35096482839295        11.081138669036534       # Si
109  109  2    84.91871289677312        80.35096482839295        5.0                      # Si
110  110  2    84.91871289677312        80.35096482839295        11.081138669036534       # Si
111  111  2    94.35382280069017        80.35096482839295        5.0                      # Si
112  112  2    94.35382280069017        80.35096482839295        11.081138669036534       # Si
113  113  2    103.78947745691117       80.35096482839295        5.0                      # Si
114  114  2    103.78947745691117       80.35096482839295        11.081138669036534       # Si
115  115  2    113.22458736082822       80.35096482839295        5.0                      # Si
116  116  2    113.22458736082822       80.35096482839295        11.081138669036534       # Si
117  117  2    9.43565465622098         80.35096482839295        5.0                      # Si
118  118  2    9.43565465622098         80.35096482839295        11.081138669036534       # Si
119  119  2    18.87076456013804        80.35096482839295        5.0                      # Si
120  120  2    18.87076456013804        80.35096482839295        11.081138669036534       # Si
121  121  2    28.306419216359014       80.35096482839295        5.0                      # Si
122  122  2    28.306419216359014       80.35096482839295        11.081138669036534       # Si
123  123  2    37.74152912027608        80.35096482839295        5.0                      # Si
124  124  2    37.74152912027608        80.35096482839295        11.081138669036534       # Si
125  125  2    47.17718377649705        80.35096482839295        5.0                      # Si
126  126  2    47.17718377649705        80.35096482839295        11.081138669036534       # Si
127  127  2    56.61229368041411        80.35096482839295        5.0                      # Si
128  128  2    56.61229368041411        80.35096482839295        11.081138669036534       # Si
129  129  2    61.329848632372645       83.07472634799949        5.0                      # Si
130  130  2    61.329848632372645       83.07472634799949        11.081138669036534       # Si
131  131  2    70.7655032885936         83.07472634799949        5.0                      # Si
132  132  2    70.7655032885936         83.07472634799949        11.081138669036534       # Si
133  133  2    80.20061319251067        83.07472634799949        5.0                      # Si
134  134  2    80.20061319251067        83.07472634799949        11.081138669036534       # Si
135  135  2    89.63626784873165        83.07472634799949        5.0                      # Si
136  136  2    89.63626784873165        83.07472634799949        11.081138669036534       # Si
137  137  2    99.0713777526487         83.07472634799949        5.0                      # Si
138  138  2    99.0713777526487         83.07472634799949        11.081138669036534       # Si
139  139  2    108.5070324088697        83.07472634799949        5.0                      # Si
140  140  2    108.5070324088697        83.07472634799949        11.081138669036534       # Si
141  141  2    4.717554951958529        83.07472634799949        5.0                      # Si
142  142  2    4.717554951958529        83.07472634799949        11.081138669036534       # Si
143  143  2    14.153209608179507       83.07472634799949        5.0                      # Si
144  144  2    14.153209608179507       83.07472634799949        11.081138669036534       # Si
145  145  2    23.58831951209656        83.07472634799949        5.0                      # Si
146  146  2    23.58831951209656        83.07472634799949        11.081138669036534       # Si
147  147  2    33.02397416831754        83.07472634799949        5.0                      # Si
148  148  2    33.02397416831754        83.07472634799949        11.081138669036534       # Si
149  149  2    42.4590840722346         83.07472634799949        5.0                      # Si
150  150  2    42.4590840722346         83.07472634799949        11.081138669036534       # Si
151  151  2    51.894738728455586       83.07472634799949        5.0                      # Si
152  152  2    51.894738728455586       83.07472634799949        11.081138669036534       # Si
153  153  2    61.329848632372645       88.52224938721258        5.0                      # Si
154  154  2    61.329848632372645       88.52224938721258        11.081138669036534       # Si
155  155  2    70.7655032885936         88.52224938721258        5.0                      # Si
156  156  2    70.7655032885936         88.52224938721258        11.081138669036534       # Si
157  157  2    80.20061319251067        88.52224938721258        5.0                      # Si
158  158  2    80.20061319251067        88.52224938721258        11.081138669036534       # Si
159  159  2    89.63626784873165        88.52224938721258        5.0                      # Si
160  160  2    89.63626784873165        88.52224938721258        11.081138669036534       # Si
161  161  2    99.0713777526487         88.52224938721258        5.0                      # Si
162  162  2    99.0713777526487         88.52224938721258        11.081138669036534       # Si
163  163  2    108.5070324088697        88.52224938721258        5.0                      # Si
164  164  2    108.5070324088697        88.52224938721258        11.081138669036534       # Si
165  165  2    4.717554951958529        88.52224938721258        5.0                      # Si
166  166  2    4.717554951958529        88.52224938721258        11.081138669036534       # Si
167  167  2    14.153209608179507       88.52224938721258        5.0                      # Si
168  168  2    14.153209608179507       88.52224938721258        11.081138669036534       # Si
169  169  2    23.58831951209656        88.52224938721258        5.0                      # Si
170  170  2    23.58831951209656        88.52224938721258        11.081138669036534       # Si
171  171  2    33.02397416831754        88.52224938721258        5.0                      # Si
172  172  2    33.02397416831754        88.52224938721258        11.081138669036534       # Si
173  173  2    42.4590840722346         88.52224938721258        5.0                      # Si
174  174  2    42.4590840722346         88.52224938721258        11.081138669036534       # Si
175  175  2    51.894738728455586       88.52224938721258        5.0                      # Si
176  176  2    51.894738728455586       88.52224938721258        11.081138669036534       # Si
177  177  2    56.61229368041411        91.24601090681912        5.0                      # Si
178  178  2    56.61229368041411        91.24601090681912        11.081138669036534       # Si
179  179  2    66.04794833663507        91.24601090681912        5.0                      # Si
180  180  2    66.04794833663507        91.24601090681912        11.081138669036534       # Si
181  181  2    75.48305824055215        91.24601090681912        5.0                      # Si
182  182  2    75.48305824055215        91.24601090681912        11.081138669036534       # Si
183  183  2    84.91871289677312        91.24601090681912        5.0                      # Si
184  184  2    84.91871289677312        91.24601090681912        11.081138669036534       # Si
185  185  2    94.35382280069017        91.24601090681912        5.0                      # Si
186  186  2    94.35382280069017        91.24601090681912        11.081138669036534       # Si
187  187  2    103.78947745691117       91.24601090681912        5.0                      # Si
188  188  2    103.78947745691117       91.24601090681912        11.081138669036534       # Si
189  189  2    113.22458736082822       91.24601090681912        5.0                      # Si
190  190  2    113.22458736082822       91.24601090681912        11.081138669036534       # Si
191  191  2    9.43565465622098         91.24601090681912        5.0                      # Si
192  192  2    9.43565465622098         91.24601090681912        11.081138669036534       # Si
193  193  2    18.87076456013804        91.24601090681912        5.0                      # Si
194  194  2    18.87076456013804        91.24601090681912        11.081138669036534       # Si
195  195  2    28.306419216359014       91.24601090681912        5.0                      # Si
196  196  2    28.306419216359014       91.24601090681912        11.081138669036534       # Si
197  197  2    37.74152912027608        91.24601090681912        5.0                      # Si
198  198  2    37.74152912027608        91.24601090681912        11.081138669036534       # Si
199  199  2    47.17718377649705        91.24601090681912        5.0                      # Si
200  200  2    47.17718377649705        91.24601090681912        11.081138669036534       # Si
201  201  2    66.04794833663507        96.6935339460322         5.0                      # Si
202  202  2    66.04794833663507        96.6935339460322         11.081138669036534       # Si
203  203  2    75.48305824055215        96.6935339460322         5.0                      # Si
204  204  2    75.48305824055215        96.6935339460322         11.081138669036534       # Si
205  205  2    84.91871289677312        96.6935339460322         5.0                      # Si
206  206  2    84.91871289677312        96.6935339460322         11.081138669036534       # Si
207  207  2    94.35382280069017        96.6935339460322         5.0                      # Si
208  208  2    94.35382280069017        96.6935339460322         11.081138669036534       # Si
209  209  2    103.78947745691117       96.6935339460322         5.0                      # Si
210  210  2    103.78947745691117       96.6935339460322         11.081138669036534       # Si
211  211  2    113.22458736082822       96.6935339460322         5.0                      # Si
212  212  2    113.22458736082822       96.6935339460322         11.081138669036534       # Si
213  213  2    9.43565465622098         96.6935339460322         5.0                      # Si
214  214  2    9.43565465622098         96.6935339460322         11.081138669036534       # Si
215  215  2    18.87076456013804        96.6935339460322         5.0                      # Si
216  216  2    18.87076456013804        96.6935339460322         11.081138669036534       # Si
217  217  2    28.306419216359014       96.6935339460322         5.0                      # Si
218  218  2    28.306419216359014       96.6935339460322         11.081138669036534       # Si
219  219  2    37.74152912027608        96.6935339460322         5.0                      # Si
220  220  2    37.74152912027608        96.6935339460322         11.081138669036534       # Si
221  221  2    47.17718377649705        96.6935339460322         5.0                      # Si
222  222  2    47.17718377649705        96.6935339460322         11.081138669036534       # Si
223  223  2    56.61229368041411        96.6935339460322         5.0                      # Si
224  224  2    56.61229368041411        96.6935339460322         11.081138669036534       # Si
225  225  2    61.329848632372645       1.3618807598032705       5.0                      # Si
226  226  2    61.329848632372645       1.3618807598032705       11.081138669036534       # Si
227  227  2    70.7655032885936         1.3618807598032705       5.0                      # Si
228  228  2    70.7655032885936         1.3618807598032705       11.081138669036534       # Si
229  229  2    80.20061319251067        1.3618807598032705       5.0                      # Si
230  230  2    80.20061319251067        1.3618807598032705       11.081138669036534       # Si
231  231  2    89.63626784873165        1.3618807598032705       5.0                      # Si
232  232  2    89.63626784873165        1.3618807598032705       11.081138669036534       # Si
233  233  2    99.0713777526487         1.3618807598032705       5.0                      # Si
234  234  2    99.0713777526487         1.3618807598032705       11.081138669036534       # Si
235  235  2    108.5070324088697        1.3618807598032705       5.0                      # Si
236  236  2    108.5070324088697        1.3618807598032705       11.081138669036534       # Si
237  237  2    4.717554951958529        1.3618807598032705       5.0                      # Si
238  238  2    4.717554951958529        1.3618807598032705       11.081138669036534       # Si
239  239  2    14.153209608179507       1.3618807598032705       5.0                      # Si
240  240  2    14.153209608179507       1.3618807598032705       11.081138669036534       # Si
241  241  2    23.58831951209656        1.3618807598032705       5.0                      # Si
242  242  2    23.58831951209656        1.3618807598032705       11.081138669036534       # Si
243  243  2    33.02397416831754        1.3618807598032705       5.0                      # Si
244  244  2    33.02397416831754        1.3618807598032705       11.081138669036534       # Si
245  245  2    42.4590840722346         1.3618807598032705       5.0                      # Si
246  246  2    42.4590840722346         1.3618807598032705       11.081138669036534       # Si
247  247  2    51.894738728455586       1.3618807598032705       5.0                      # Si
248  248  2    51.894738728455586       1.3618807598032705       11.081138669036534       # Si
249  249  2    61.329848632372645       6.809403799016352        5.0                      # Si
250  250  2    61.329848632372645       6.809403799016352        11.081138669036534       # Si
251  251  2    70.7655032885936         6.809403799016352        5.0                      # Si
252  252  2    70.7655032885936         6.809403799016352        11.081138669036534       # Si
253  253  2    80.20061319251067        6.809403799016352        5.0                      # Si
254  254  2    80.20061319251067        6.809403799016352        11.081138669036534       # Si
255  255  2    89.63626784873165        6.809403799016352        5.0                      # Si
256  256  2    89.63626784873165        6.809403799016352        11.081138669036534       # Si
257  257  2    99.0713777526487         6.809403799016352        5.0                      # Si
258  258  2    99.0713777526487         6.809403799016352        11.081138669036534       # Si
259  259  2    108.5070324088697        6.809403799016352        5.0                      # Si
260  260  2    108.5070324088697        6.809403799016352        11.081138669036534       # Si
261  261  2    4.717554951958529        6.809403799016352        5.0                      # Si
262  262  2    4.717554951958529        6.809403799016352        11.081138669036534       # Si
263  263  2    14.153209608179507       6.809403799016352        5.0                      # Si
264  264  2    14.153209608179507       6.809403799016352        11.081138669036534       # Si
265  265  2    23.58831951209656        6.809403799016352        5.0                      # Si
266  266  2    23.58831951209656        6.809403799016352        11.081138669036534       # Si
267  267  2    33.02397416831754        6.809403799016352        5.0                      # Si
268  268  2    33.02397416831754        6.809403799016352        11.081138669036534       # Si
269  269  2    42.4590840722346         6.809403799016352        5.0                      # Si
270  270  2    42.4590840722346         6.809403799016352        11.081138669036534       # Si
271  271  2    51.894738728455586       6.809403799016352        5.0                      # Si
272  272  2    51.894738728455586       6.809403799016352        11.081138669036534       # Si
273  273  2    56.61229368041411        9.533165318622892        5.0                      # Si
274  274  2    56.61229368041411        9.533165318622892        11.081138669036534       # Si
275  275  2    66.04794833663507        9.533165318622892        5.0                      # Si
276  276  2    66.04794833663507        9.533165318622892        11.081138669036534       # Si
277  277  2    75.48305824055215        9.533165318622892        5.0                      # Si
278  278  2    75.48305824055215        9.533165318622892        11.081138669036534       # Si
279  279  2    84.91871289677312        9.533165318622892        5.0                      # Si
280  280  2    84.91871289677312        9.533165318622892        11.081138669036534       # Si
281  281  2    94.35382280069017        9.533165318622892        5.0                      # Si
282  282  2    94.35382280069017        9.533165318622892        11.081138669036534       # Si
283  283  2    103.78947745691117       9.533165318622892        5.0                      # Si
284  284  2    103.78947745691117       9.533165318622892        11.081138669036534       # Si
285  285  2    113.22458736082822       9.533165318622892        5.0                      # Si
286  286  2    113.22458736082822       9.533165318622892        11.081138669036534       # Si
287  287  2    9.43565465622098         9.533165318622892        5.0                      # Si
288  288  2    9.43565465622098         9.533165318622892        11.081138669036534       # Si
289  289  2    18.87076456013804        9.533165318622892        5.0                      # Si
290  290  2    18.87076456013804        9.533165318622892        11.081138669036534       # Si
291  291  2    28.306419216359014       9.533165318622892        5.0                      # Si
292  292  2    28.306419216359014       9.533165318622892        11.081138669036534       # Si
293  293  2    37.74152912027608        9.533165318622892        5.0                      # Si
294  294  2    37.74152912027608        9.533165318622892        11.081138669036534       # Si
295  295  2    47.17718377649705        9.533165318622892        5.0                      # Si
296  296  2    47.17718377649705        9.533165318622892        11.081138669036534       # Si
297  297  2    66.04794833663507        14.980688357835973       5.0                      # Si
298  298  2    66.04794833663507        14.980688357835973       11.081138669036534       # Si
299  299  2    75.48305824055215        14.980688357835973       5.0                      # Si
300  300  2    75.48305824055215        14.980688357835973       11.081138669036534       # Si
301  301  2    84.91871289677312        14.980688357835973       5.0                      # Si
302  302  2    84.91871289677312        14.980688357835973       11.081138669036534       # Si
303  303  2    94.35382280069017        14.980688357835973       5.0                      # Si
304  304  2    94.35382280069017        14.980688357835973       11.081138669036534       # Si
305  305  2    103.78947745691117       14.980688357835973       5.0                      # Si
306  306  2    103.78947745691117       14.980688357835973       11.081138669036534       # Si
307  307  2    113.22458736082822       14.980688357835973       5.0                      # Si
308  308  2    113.22458736082822       14.980688357835973       11.081138669036534       # Si
309  309  2    9.43565465622098         14.980688357835973       5.0                      # Si
310  310  2    9.43565465622098         14.980688357835973       11.081138669036534       # Si
311  311  2    18.87076456013804        14.980688357835973       5.0                      # Si