DATA FILE Produced from netmc results (cf David Morley)
1275 atoms
3060 bonds
0 angles
0 dihedrals
0 impropers
2 atom types
2 bond types
0 angle types
0 dihedral types
0 improper types
0.00000 159.68176286027418 xlo xhi
0.00000 137.60046048676702 ylo yhi

# Pair Coeffs
#
# 1  O
# 2  Si

# Bond Coeffs
# 
# 1  O-O
# 2  Si-O
# 3  O-O rep
# 4  Si-Si rep

 Masses

1 28.10000 # O 
2 32.01000 # Si

 Atoms # molecular

1    1    2    84.83075269032211        75.96692089373596        5.0                      # Si
2    2    2    94.8111462902044         75.96692089373596        5.0                      # Si
3    3    2    104.7909636881584        75.96692089373596        5.0                      # Si
4    4    2    114.77135728804069       75.96692089373596        5.0                      # Si
5    5    2    124.75117468599467       75.96692089373596        5.0                      # Si
6    6    2    134.73156828587696       75.96692089373596        5.0                      # Si
7    7    2    144.71138568383097       75.96692089373596        5.0                      # Si
8    8    2    154.69177928371326       75.96692089373596        5.0                      # Si
9    9    2    4.989908698976999        75.96692089373596        5.0                      # Si
10   10   2    14.970302298859282       75.96692089373596        5.0                      # Si
11   11   2    24.950119696813275       75.96692089373596        5.0                      # Si
12   12   2    34.930513296695565       75.96692089373596        5.0                      # Si
13   13   2    44.91033069464956        75.96692089373596        5.0                      # Si
14   14   2    54.89072429453184        75.96692089373596        5.0                      # Si
15   15   2    64.87054169248584        75.96692089373596        5.0                      # Si
16   16   2    74.85093529236812        75.96692089373596        5.0                      # Si
17   17   2    89.82123759122742        78.83359715387695        5.0                      # Si
18   18   2    99.80105498918141        78.83359715387695        5.0                      # Si
19   19   2    109.78144858906369       78.83359715387695        5.0                      # Si
20   20   2    119.76126598701768       78.83359715387695        5.0                      # Si
21   21   2    129.74165958689997       78.83359715387695        5.0                      # Si
22   22   2    139.72147698485398       78.83359715387695        5.0                      # Si
23   23   2    149.70187058473624       78.83359715387695        5.0                      # Si
24   24   2    159.68168798269025       78.83359715387695        5.0                      # Si
25   25   2    9.980393599882284        78.83359715387695        5.0                      # Si
26   26   2    19.96021099783628        78.83359715387695        5.0                      # Si
27   27   2    29.940604597718565       78.83359715387695        5.0                      # Si
28   28   2    39.92042199567256        78.83359715387695        5.0                      # Si
29   29   2    49.900815595554846       78.83359715387695        5.0                      # Si
30   30   2    59.88063299350884        78.83359715387695        5.0                      # Si
31   31   2    69.86102659339113        78.83359715387695        5.0                      # Si
32   32   2    89.82123759122742        84.5669496741589         5.0                      # Si
33   33   2    99.80105498918141        84.5669496741589         5.0                      # Si
34   34   2    109.78144858906369       84.5669496741589         5.0                      # Si
35   35   2    119.76126598701768       84.5669496741589         5.0                      # Si
36   36   2    129.74165958689997       84.5669496741589         5.0                      # Si
37   37   2    139.72147698485398       84.5669496741589         5.0                      # Si
38   38   2    149.70187058473624       84.5669496741589         5.0                      # Si
39   39   2    159.68168798269025       84.5669496741589         5.0                      # Si
40   40   2    9.980393599882284        84.5669496741589         5.0                      # Si
41   41   2    19.96021099783628        84.5669496741589         5.0                      # Si
42   42   2    29.940604597718565       84.5669496741589         5.0                      # Si
43   43   2    39.92042199567256        84.5669496741589         5.0                      # Si
44   44   2    49.900815595554846       84.5669496741589         5.0                      # Si
45   45   2    59.88063299350884        84.5669496741589         5.0                      # Si
46   46   2    69.86102659339113        84.5669496741589         5.0                      # Si
47   47   2    84.83075269032211        87.43362593429988        5.0                      # Si
48   48   2    94.8111462902044         87.43362593429988        5.0                      # Si
49   49   2    104.7909636881584        87.43362593429988        5.0                      # Si
50   50   2    114.77135728804069       87.43362593429988        5.0                      # Si
51   51   2    124.75117468599467       87.43362593429988        5.0                      # Si
52   52   2    134.73156828587696       87.43362593429988        5.0                      # Si
53   53   2    144.71138568383097       87.43362593429988        5.0                      # Si
54   54   2    154.69177928371326       87.43362593429988        5.0                      # Si
55   55   2    4.989908698976999        87.43362593429988        5.0                      # Si
56   56   2    14.970302298859282       87.43362593429988        5.0                      # Si
57   57   2    24.950119696813275       87.43362593429988        5.0                      # Si
58   58   2    34.930513296695565       87.43362593429988        5.0                      # Si
59   59   2    44.91033069464956        87.43362593429988        5.0                      # Si
60   60   2    54.89072429453184        87.43362593429988        5.0                      # Si
61   61   2    64.87054169248584        87.43362593429988        5.0                      # Si
62   62   2    74.85093529236812        87.43362593429988        5.0                      # Si
63   63   2    84.83075269032211        93.16697845458185        5.0                      # Si
64   64   2    94.8111462902044         93.16697845458185        5.0                      # Si
65   65   2    104.7909636881584        93.16697845458185        5.0                      # Si
66   66   2    114.77135728804069       93.16697845458185        5.0                      # Si
67   67   2    124.75117468599467       93.16697845458185        5.0                      # Si
68   68   2    134.73156828587696       93.16697845458185        5.0                      # Si
69   69   2    144.71138568383097       93.16697845458185        5.0                      # Si
70   70   2    154.69177928371326       93.16697845458185        5.0                      # Si
71   71   2    4.989908698976999        93.16697845458185        5.0                      # Si
72   72   2    14.970302298859282       93.16697845458185        5.0                      # Si
73   73   2    24.950119696813275       93.16697845458185        5.0                      # Si
74   74   2    34.930513296695565       93.16697845458185        5.0                      # Si
75   75   2    44.91033069464956        93.16697845458185        5.0                      # Si
76   76   2    54.89072429453184        93.16697845458185        5.0                      # Si
77   77   2    64.87054169248584        93.16697845458185        5.0                      # Si
78   78   2    74.85093529236812        93.16697845458185        5.0                      # Si
79   79   2    79.84084399134512        96.03365471472283        5.0                      # Si
80   80   2    89.82123759122742        96.03365471472283        5.0                      # Si
81   81   2    99.80105498918141        96.03365471472283        5.0                      # Si
82   82   2    109.78144858906369       96.03365471472283        5.0                      # Si
83   83   2    119.76126598701768       96.03365471472283        5.0                      # Si
84   84   2    129.74165958689997       96.03365471472283        5.0                      # Si
85   85   2    139.72147698485398       96.03365471472283        5.0                      # Si
86   86   2    149.70187058473624       96.03365471472283        5.0                      # Si
87   87   2    159.68168798269025       96.03365471472283        5.0                      # Si
88   88   2    9.980393599882284        96.03365471472283        5.0                      # Si
89   89   2    19.96021099783628        96.03365471472283        5.0                      # Si
90   90   2    29.940604597718565       96.03365471472283        5.0                      # Si
91   91   2    39.92042199567256        96.03365471472283        5.0                      # Si
92   92   2    49.900815595554846       96.03365471472283        5.0                      # Si
93   93   2    59.88063299350884        96.03365471472283        5.0                      # Si
94   94   2    69.86102659339113        96.03365471472283        5.0                      # Si
95   95   2    89.82123759122742        101.76700723500478       5.0                      # Si
96   96   2    99.80105498918141        101.76700723500478       5.0                      # Si
97   97   2    109.78144858906369       101.76700723500478       5.0                      # Si
98   98   2    119.76126598701768       101.76700723500478       5.0                      # Si
99   99   2    129.74165958689997       101.76700723500478       5.0                      # Si
100  100  2    139.72147698485398       101.76700723500478       5.0                      # Si
101  101  2    149.70187058473624       101.76700723500478       5.0                      # Si
102  102  2    159.68168798269025       101.76700723500478       5.0                      # Si
103  103  2    9.980393599882284        101.76700723500478       5.0                      # Si
104  104  2    19.96021099783628        101.76700723500478       5.0                      # Si
105  105  2    29.940604597718565       101.76700723500478       5.0                      # Si
106  106  2    39.92042199567256        101.76700723500478       5.0                      # Si
107  107  2    49.900815595554846       101.76700723500478       5.0                      # Si
108  108  2    59.88063299350884        101.76700723500478       5.0                      # Si
109  109  2    69.86102659339113        101.76700723500478       5.0                      # Si
110  110  2    79.84084399134512        101.76700723500478       5.0                      # Si
111  111  2    84.83075269032211        104.63368349514576       5.0                      # Si
112  112  2    94.8111462902044         104.63368349514576       5.0                      # Si
113  113  2    104.7909636881584        104.63368349514576       5.0                      # Si
114  114  2    114.77135728804069       104.63368349514576       5.0                      # Si
115  115  2    124.75117468599467       104.63368349514576       5.0                      # Si
116  116  2    134.73156828587696       104.63368349514576       5.0                      # Si
117  117  2    144.71138568383097       104.63368349514576       5.0                      # Si
118  118  2    154.69177928371326       104.63368349514576       5.0                      # Si
119  119  2    4.989908698976999        104.63368349514576       5.0                      # Si
120  120  2    14.970302298859282       104.63368349514576       5.0                      # Si
121  121  2    24.950119696813275       104.63368349514576       5.0                      # Si
122  122  2    34.930513296695565       104.63368349514576       5.0                      # Si
123  123  2    44.91033069464956        104.63368349514576       5.0                      # Si
124  124  2    54.89072429453184        104.63368349514576       5.0                      # Si
125  125  2    64.87054169248584        104.63368349514576       5.0                      # Si
126  126  2    74.85093529236812        104.63368349514576       5.0                      # Si
127  127  2    84.83075269032211        110.36703601542773       5.0                      # Si
128  128  2    94.8111462902044         110.36703601542773       5.0                      # Si
129  129  2    104.7909636881584        110.36703601542773       5.0                      # Si
130  130  2    114.77135728804069       110.36703601542773       5.0                      # Si
131  131  2    124.75117468599467       110.36703601542773       5.0                      # Si
132  132  2    134.73156828587696       110.36703601542773       5.0                      # Si
133  133  2    144.71138568383097       110.36703601542773       5.0                      # Si
134  134  2    154.69177928371326       110.36703601542773       5.0                      # Si
135  135  2    4.989908698976999        110.36703601542773       5.0                      # Si
136  136  2    14.970302298859282       110.36703601542773       5.0                      # Si
137  137  2    24.950119696813275       110.36703601542773       5.0                      # Si
138  138  2    34.930513296695565       110.36703601542773       5.0                      # Si
139  139  2    44.91033069464956        110.36703601542773       5.0                      # Si
140  140  2    54.89072429453184        110.36703601542773       5.0                      # Si
141  141  2    64.87054169248584        110.36703601542773       5.0                      # Si
142  142  2    74.85093529236812        110.36703601542773       5.0                      # Si
143  143  2    79.84084399134512        113.2337122755687        5.0                      # Si
144  144  2    89.82123759122742        113.2337122755687        5.0                      # Si
145  145  2    99.80105498918141        113.2337122755687        5.0                      # Si
146  146  2    109.78144858906369       113.2337122755687        5.0                      # Si
147  147  2    119.76126598701768       113.2337122755687        5.0                      # Si
148  148  2    129.74165958689997       113.2337122755687        5.0                      # Si
149  149  2    139.72147698485398       113.2337122755687        5.0                      # Si
150  150  2    149.70187058473624       113.2337122755687        5.0                      # Si
151  151  2    159.68168798269025       113.2337122755687        5.0                      # Si
152  152  2    9.980393599882284        113.2337122755687        5.0                      # Si
153  153  2    19.96021099783628        113.2337122755687        5.0                      # Si
154  154  2    29.940604597718565       113.2337122755687        5.0                      # Si
155  155  2    39.92042199567256        113.2337122755687        5.0                      # Si
156  156  2    49.900815595554846       113.2337122755687        5.0                      # Si
157  157  2    59.88063299350884        113.2337122755687        5.0                      # Si
158  158  2    69.86102659339113        113.2337122755687        5.0                      # Si
159  159  2    89.82123759122742        118.96706479585066       5.0                      # Si
160  160  2    99.80105498918141        118.96706479585066       5.0                      # Si
161  161  2    109.78144858906369       118.96706479585066       5.0                      # Si
162  162  2    119.76126598701768       118.96706479585066       5.0                      # Si
163  163  2    129.74165958689997       118.96706479585066       5.0                      # Si
164  164  2    139.72147698485398       118.96706479585066       5.0                      # Si
165  165  2    149.70187058473624       118.96706479585066       5.0                      # Si
166  166  2    159.68168798269025       118.96706479585066       5.0                      # Si
167  167  2    9.980393599882284        118.96706479585066       5.0                      # Si
168  168  2    19.96021099783628        118.96706479585066       5.0                      # Si
169  169  2    29.940604597718565       118.96706479585066       5.0                      # Si
170  170  2    39.92042199567256        118.96706479585066       5.0                      # Si
171  171  2    49.900815595554846       118.96706479585066       5.0                      # Si
172  172  2    59.88063299350884        118.96706479585066       5.0                      # Si
173  173  2    69.86102659339113        118.96706479585066       5.0                      # Si
174  174  2    79.84084399134512        118.96706479585066       5.0                      # Si
175  175  2    84.83075269032211        121.83374105599164       5.0                      # Si
176  176  2    94.8111462902044         121.83374105599164       5.0                      # Si
177  177  2    104.7909636881584        121.83374105599164       5.0                      # Si
178  178  2    114.77135728804069       121.83374105599164       5.0                      # Si
179  179  2    124.75117468599467       121.83374105599164       5.0                      # Si
180  180  2    134.73156828587696       121.83374105599164       5.0                      # Si
181  181  2    144.71138568383097       121.83374105599164       5.0                      # Si
182  182  2    154.69177928371326       121.83374105599164       5.0                      # Si
183  183  2    4.989908698976999        121.83374105599164       5.0                      # Si
184  184  2    14.970302298859282       121.83374105599164       5.0                      # Si
185  185  2    24.950119696813275       121.83374105599164       5.0                      # Si
186  186  2    34.930513296695565       121.83374105599164       5.0                      # Si
187  187  2    44.91033069464956        121.83374105599164       5.0                      # Si
188  188  2    54.89072429453184        121.83374105599164       5.0                      # Si
189  189  2    64.87054169248584        121.83374105599164       5.0                      # Si
190  190  2    74.85093529236812        121.83374105599164       5.0                      # Si
191  191  2    84.83075269032211        127.5670935762736        5.0                      # Si
192  192  2    94.8111462902044         127.5670935762736        5.0                      # Si
193  193  2    104.7909636881584        127.5670935762736        5.0                      # Si
194  194  2    114.77135728804069       127.5670935762736        5.0                      # Si
195  195  2    124.75117468599467       127.5670935762736        5.0                      # Si
196  196  2    134.73156828587696       127.5670935762736        5.0                      # Si
197  197  2    144.71138568383097       127.5670935762736        5.0                      # Si
198  198  2    154.69177928371326       127.5670935762736        5.0                      # Si
199  199  2    4.989908698976999        127.5670935762736        5.0                      # Si
200  200  2    14.970302298859282       127.5670935762736        5.0                      # Si
201  201  2    24.950119696813275       127.5670935762736        5.0                      # Si
202  202  2    34.930513296695565       127.5670935762736        5.0                      # Si
203  203  2    44.91033069464956        127.5670935762736        5.0                      # Si
204  204  2    54.89072429453184        127.5670935762736        5.0                      # Si
205  205  2    64.87054169248584        127.5670935762736        5.0                      # Si
206  206  2    74.85093529236812        127.5670935762736        5.0                      # Si
207  207  2    79.84084399134512        130.4337698364146        5.0                      # Si
208  208  2    89.82123759122742        130.4337698364146        5.0                      # Si
209  209  2    99.80105498918141        130.4337698364146        5.0                      # Si
210  210  2    109.78144858906369       130.4337698364146        5.0                      # Si
211  211  2    119.76126598701768       130.4337698364146        5.0                      # Si
212  212  2    129.74165958689997       130.4337698364146        5.0                      # Si
213  213  2    139.72147698485398       130.4337698364146        5.0                      # Si
214  214  2    149.70187058473624       130.4337698364146        5.0                      # Si
215  215  2    159.68168798269025       130.4337698364146        5.0                      # Si
216  216  2    9.980393599882284        130.4337698364146        5.0                      # Si
217  217  2    19.96021099783628        130.4337698364146        5.0                      # Si
218  218  2    29.940604597718565       130.4337698364146        5.0                      # Si
219  219  2    39.92042199567256        130.4337698364146        5.0                      # Si
220  220  2    49.900815595554846       130.4337698364146        5.0                      # Si
221  221  2    59.88063299350884        130.4337698364146        5.0                      # Si
222  222  2    69.86102659339113        130.4337698364146        5.0                      # Si
223  223  2    89.82123759122742        136.16712235669655       5.0                      # Si
224  224  2    99.80105498918141        136.16712235669655       5.0                      # Si
225  225  2    109.78144858906369       136.16712235669655       5.0                      # Si
226  226  2    119.76126598701768       136.16712235669655       5.0                      # Si
227  227  2    129.74165958689997       136.16712235669655       5.0                      # Si
228  228  2    139.72147698485398       136.16712235669655       5.0                      # Si
229  229  2    149.70187058473624       136.16712235669655       5.0                      # Si
230  230  2    159.68168798269025       136.16712235669655       5.0                      # Si
231  231  2    9.980393599882284        136.16712235669655       5.0                      # Si
232  232  2    19.96021099783628        136.16712235669655       5.0                      # Si
233  233  2    29.940604597718565       136.16712235669655       5.0                      # Si
234  234  2    39.92042199567256        136.16712235669655       5.0                      # Si
235  235  2    49.900815595554846       136.16712235669655       5.0                      # Si
236  236  2    59.88063299350884        136.16712235669655       5.0                      # Si
237  237  2    69.86102659339113        136.16712235669655       5.0                      # Si
238  238  2    79.84084399134512        136.16712235669655       5.0                      # Si
239  239  2    84.83075269032211        1.43333813007049         5.0                      # Si
240  240  2    94.8111462902044         1.43333813007049         5.0                      # Si
241  241  2    104.7909636881584        1.43333813007049         5.0                      # Si
242  242  2    114.77135728804069       1.43333813007049         5.0                      # Si
243  243  2    124.75117468599467       1.43333813007049         5.0                      # Si
244  244  2    134.73156828587696       1.43333813007049         5.0                      # Si
245  245  2    144.71138568383097       1.43333813007049         5.0                      # Si
246  246  2    154.69177928371326       1.43333813007049         5.0                      # Si
247  247  2    4.989908698976999        1.43333813007049         5.0                      # Si
248  248  2    14.970302298859282       1.43333813007049         5.0                      # Si
249  249  2    24.950119696813275       1.43333813007049         5.0                      # Si
250  250  2    34.930513296695565       1.43333813007049         5.0                      # Si
251  251  2    44.91033069464956        1.43333813007049         5.0                      # Si
252  252  2    54.89072429453184        1.43333813007049         5.0                      # Si
253  253  2    64.87054169248584        1.43333813007049         5.0                      # Si
254  254  2    74.85093529236812        1.43333813007049         5.0                      # Si
255  255  2    84.83075269032211        7.16669065035245         5.0                      # Si
256  256  2    94.8111462902044         7.16669065035245         5.0                      # Si
257  257  2    104.7909636881584        7.16669065035245         5.0                      # Si
258  258  2    114.77135728804069       7.16669065035245         5.0                      # Si
259  259  2    124.75117468599467       7.16669065035245         5.0                      # Si
260  260  2    134.73156828587696       7.16669065035245         5.0                      # Si
261  261  2    144.71138568383097       7.16669065035245         5.0                      # Si
262  262  2    154.69177928371326       7.16669065035245         5.0                      # Si
263  263  2    4.989908698976999        7.16669065035245         5.0                      # Si
264  264  2    14.970302298859282       7.16669065035245         5.0                      # Si
265  265  2    24.950119696813275       7.16669065035245         5.0                      # Si
266  266  2    34.930513296695565       7.16669065035245         5.0                      # Si
267  267  2    44.91033069464956        7.16669065035245         5.0                      # Si
268  268  2    54.89072429453184        7.16669065035245         5.0                      # Si
269  269  2    64.87054169248584        7.16669065035245         5.0                      # Si
270  270  2    74.85093529236812        7.16669065035245         5.0                      # Si
271  271  2    79.84084399134512        10.033366910493429       5.0                      # Si
272  272  2    89.82123759122742        10.033366910493429       5.0                      # Si
273  273  2    99.80105498918141        10.033366910493429       5.0                      # Si
274  274  2    109.78144858906369       10.033366910493429       5.0                      # Si
275  275  2    119.76126598701768       10.033366910493429       5.0                      # Si
276  276  2    129.74165958689997       10.033366910493429       5.0                      # Si
277  277  2    139.72147698485398       10.033366910493429       5.0                      # Si
278  278  2    149.70187058473624       10.033366910493429       5.0                      # Si
279  279  2    159.68168798269025       10.033366910493429       5.0                      # Si
280  280  2    9.980393599882284        10.033366910493429       5.0                      # Si
281  281  2    19.96021099783628        10.033366910493429       5.0                      # Si
282  282  2    29.940604597718565       10.033366910493429       5.0                      # Si
283  283  2    39.92042199567256        10.033366910493429       5.0                      # Si
284  284  2    49.900815595554846       10.033366910493429       5.0                      # Si
285  285  2    59.88063299350884        10.033366910493429       5.0                      # Si
286  286  2    69.86102659339113        10.033366910493429       5.0                      # Si
287  287  2    89.82123759122742        15.766719430775389       5.0                      # Si
288  288  2    99.80105498918141        15.766719430775389       5.0                      # Si
289  289  2    109.78144858906369       15.766719430775389       5.0                      # Si
290  290  2    119.76126598701768       15.766719430775389       5.0                      # Si
291  291  2    129.74165958689997       15.766719430775389       5.0                      # Si
292  292  2    139.72147698485398       15.766719430775389       5.0                      # Si
293  293  2    149.70187058473624       15.766719430775389       5.0                      # Si
294  294  2    159.68168798269025       15.766719430775389       5.0                      # Si
295  295  2    9.980393599882284        15.766719430775389       5.0                      # Si
296  296  2    19.96021099783628        15.766719430775389       5.0                      # Si
297  297  2    29.940604597718565       15.766719430775389       5.0                      # Si
298  298  2    39.92042199567256        15.766719430775389       5.0                      # Si
299  299  2    49.900815595554846       15.766719430775389       5.0                      # Si
300  300  2    59.88063299350884        15.766719430775389       5.0                      # Si
301  301  2    69.86102659339113        15.766719430775389       5.0                      # Si
302  302  2    79.84084399134512        15.766719430775389       5.0                      # Si
303  303  2    84.83075269032211        18.63339569091637        5.0                      # Si
304  304  2    94.8111462902044         18.63339569091637        5.0                      # Si
305  305  2    104.7909636881584        18.63339569091637        5.0                      # Si
306  306  2    114.77135728804069       18.63339569091637        5.0                      # Si
307  307  2    124.75117468599467       18.63339569091637        5.0                      # Si
308  308  2    134.73156828587696       18.63339569091637        5.0                      # Si
309  309  2    144.71138568383097       18.63339569091637        5.0                      # Si
310  310  2    154.69177928371326       18.63339569091637        5.0                      # Si
311  311  2    4.989908698976999        18.63339569091637        5.0                      # Si