DATA FILE Produced from netmc results (cf David Morley)
3060 atoms
10200 bonds
0 angles
0 dihedrals
0 impropers
2 atom types
0 bond types
2 bond types
0 angle types
0 dihedral types
0 improper types
0.00000 159.68176286027418 xlo xhi
0.00000 137.60046048676702 ylo yhi
0.0000 200.0000 zlo zhi

# Pair Coeffs
#
# 1  O
# 2  Si

# Bond Coeffs
# 
# 1  O-O
# 2  Si-O
# 3  O-O rep
# 4  Si-Si rep

 Masses

1 28.10000 # O 
2 32.01000 # Si

 Atoms # molecular

1    1    1    84.83075269032211        75.96692089373596        8.040569334518267        # O
2    2    1    94.8111462902044         75.96692089373596        8.040569334518267        # O
3    3    1    104.7909636881584        75.96692089373596        8.040569334518267        # O
4    4    1    114.77135728804069       75.96692089373596        8.040569334518267        # O
5    5    1    124.75117468599467       75.96692089373596        8.040569334518267        # O
6    6    1    134.73156828587696       75.96692089373596        8.040569334518267        # O
7    7    1    144.71138568383097       75.96692089373596        8.040569334518267        # O
8    8    1    154.69177928371326       75.96692089373596        8.040569334518267        # O
9    9    1    4.989908698976999        75.96692089373596        8.040569334518267        # O
10   10   1    14.970302298859282       75.96692089373596        8.040569334518267        # O
11   11   1    24.950119696813275       75.96692089373596        8.040569334518267        # O
12   12   1    34.930513296695565       75.96692089373596        8.040569334518267        # O
13   13   1    44.91033069464956        75.96692089373596        8.040569334518267        # O
14   14   1    54.89072429453184        75.96692089373596        8.040569334518267        # O
15   15   1    64.87054169248584        75.96692089373596        8.040569334518267        # O
16   16   1    74.85093529236812        75.96692089373596        8.040569334518267        # O
17   17   1    89.82123759122742        78.83359715387695        8.040569334518267        # O
18   18   1    99.80105498918141        78.83359715387695        8.040569334518267        # O
19   19   1    109.78144858906369       78.83359715387695        8.040569334518267        # O
20   20   1    119.76126598701768       78.83359715387695        8.040569334518267        # O
21   21   1    129.74165958689997       78.83359715387695        8.040569334518267        # O
22   22   1    139.72147698485398       78.83359715387695        8.040569334518267        # O
23   23   1    149.70187058473624       78.83359715387695        8.040569334518267        # O
24   24   1    159.68168798269025       78.83359715387695        8.040569334518267        # O
25   25   1    9.980393599882284        78.83359715387695        8.040569334518267        # O
26   26   1    19.96021099783628        78.83359715387695        8.040569334518267        # O
27   27   1    29.940604597718565       78.83359715387695        8.040569334518267        # O
28   28   1    39.92042199567256        78.83359715387695        8.040569334518267        # O
29   29   1    49.900815595554846       78.83359715387695        8.040569334518267        # O
30   30   1    59.88063299350884        78.83359715387695        8.040569334518267        # O
31   31   1    69.86102659339113        78.83359715387695        8.040569334518267        # O
32   32   1    89.82123759122742        84.5669496741589         8.040569334518267        # O
33   33   1    99.80105498918141        84.5669496741589         8.040569334518267        # O
34   34   1    109.78144858906369       84.5669496741589         8.040569334518267        # O
35   35   1    119.76126598701768       84.5669496741589         8.040569334518267        # O
36   36   1    129.74165958689997       84.5669496741589         8.040569334518267        # O
37   37   1    139.72147698485398       84.5669496741589         8.040569334518267        # O
38   38   1    149.70187058473624       84.5669496741589         8.040569334518267        # O
39   39   1    159.68168798269025       84.5669496741589         8.040569334518267        # O
40   40   1    9.980393599882284        84.5669496741589         8.040569334518267        # O
41   41   1    19.96021099783628        84.5669496741589         8.040569334518267        # O
42   42   1    29.940604597718565       84.5669496741589         8.040569334518267        # O
43   43   1    39.92042199567256        84.5669496741589         8.040569334518267        # O
44   44   1    49.900815595554846       84.5669496741589         8.040569334518267        # O
45   45   1    59.88063299350884        84.5669496741589         8.040569334518267        # O
46   46   1    69.86102659339113        84.5669496741589         8.040569334518267        # O
47   47   1    84.83075269032211        87.43362593429988        8.040569334518267        # O
48   48   1    94.8111462902044         87.43362593429988        8.040569334518267        # O
49   49   1    104.7909636881584        87.43362593429988        8.040569334518267        # O
50   50   1    114.77135728804069       87.43362593429988        8.040569334518267        # O
51   51   1    124.75117468599467       87.43362593429988        8.040569334518267        # O
52   52   1    134.73156828587696       87.43362593429988        8.040569334518267        # O
53   53   1    144.71138568383097       87.43362593429988        8.040569334518267        # O
54   54   1    154.69177928371326       87.43362593429988        8.040569334518267        # O
55   55   1    4.989908698976999        87.43362593429988        8.040569334518267        # O
56   56   1    14.970302298859282       87.43362593429988        8.040569334518267        # O
57   57   1    24.950119696813275       87.43362593429988        8.040569334518267        # O
58   58   1    34.930513296695565       87.43362593429988        8.040569334518267        # O
59   59   1    44.91033069464956        87.43362593429988        8.040569334518267        # O
60   60   1    54.89072429453184        87.43362593429988        8.040569334518267        # O
61   61   1    64.87054169248584        87.43362593429988        8.040569334518267        # O
62   62   1    74.85093529236812        87.43362593429988        8.040569334518267        # O
63   63   1    84.83075269032211        93.16697845458185        8.040569334518267        # O
64   64   1    94.8111462902044         93.16697845458185        8.040569334518267        # O
65   65   1    104.7909636881584        93.16697845458185        8.040569334518267        # O
66   66   1    114.77135728804069       93.16697845458185        8.040569334518267        # O
67   67   1    124.75117468599467       93.16697845458185        8.040569334518267        # O
68   68   1    134.73156828587696       93.16697845458185        8.040569334518267        # O
69   69   1    144.71138568383097       93.16697845458185        8.040569334518267        # O
70   70   1    154.69177928371326       93.16697845458185        8.040569334518267        # O
71   71   1    4.989908698976999        93.16697845458185        8.040569334518267        # O
72   72   1    14.970302298859282       93.16697845458185        8.040569334518267        # O
73   73   1    24.950119696813275       93.16697845458185        8.040569334518267        # O
74   74   1    34.930513296695565       93.16697845458185        8.040569334518267        # O
75   75   1    44.91033069464956        93.16697845458185        8.040569334518267        # O
76   76   1    54.89072429453184        93.16697845458185        8.040569334518267        # O
77   77   1    64.87054169248584        93.16697845458185        8.040569334518267        # O
78   78   1    74.85093529236812        93.16697845458185        8.040569334518267        # O
79   79   1    79.84084399134512        96.03365471472283        8.040569334518267        # O
80   80   1    89.82123759122742        96.03365471472283        8.040569334518267        # O
81   81   1    99.80105498918141        96.03365471472283        8.040569334518267        # O
82   82   1    109.78144858906369       96.03365471472283        8.040569334518267        # O
83   83   1    119.76126598701768       96.03365471472283        8.040569334518267        # O
84   84   1    129.74165958689997       96.03365471472283        8.040569334518267        # O
85   85   1    139.72147698485398       96.03365471472283        8.040569334518267        # O
86   86   1    149.70187058473624       96.03365471472283        8.040569334518267        # O
87   87   1    159.68168798269025       96.03365471472283        8.040569334518267        # O
88   88   1    9.980393599882284        96.03365471472283        8.040569334518267        # O
89   89   1    19.96021099783628        96.03365471472283        8.040569334518267        # O
90   90   1    29.940604597718565       96.03365471472283        8.040569334518267        # O
91   91   1    39.92042199567256        96.03365471472283        8.040569334518267        # O
92   92   1    49.900815595554846       96.03365471472283        8.040569334518267        # O
93   93   1    59.88063299350884        96.03365471472283        8.040569334518267        # O
94   94   1    69.86102659339113        96.03365471472283        8.040569334518267        # O
95   95   1    89.82123759122742        101.76700723500478       8.040569334518267        # O
96   96   1    99.80105498918141        101.76700723500478       8.040569334518267        # O
97   97   1    109.78144858906369       101.76700723500478       8.040569334518267        # O
98   98   1    119.76126598701768       101.76700723500478       8.040569334518267        # O
99   99   1    129.74165958689997       101.76700723500478       8.040569334518267        # O
100  100  1    139.72147698485398       101.76700723500478       8.040569334518267        # O
101  101  1    149.70187058473624       101.76700723500478       8.040569334518267        # O
102  102  1    159.68168798269025       101.76700723500478       8.040569334518267        # O
103  103  1    9.980393599882284        101.76700723500478       8.040569334518267        # O
104  104  1    19.96021099783628        101.76700723500478       8.040569334518267        # O
105  105  1    29.940604597718565       101.76700723500478       8.040569334518267        # O
106  106  1    39.92042199567256        101.76700723500478       8.040569334518267        # O
107  107  1    49.900815595554846       101.76700723500478       8.040569334518267        # O
108  108  1    59.88063299350884        101.76700723500478       8.040569334518267        # O
109  109  1    69.86102659339113        101.76700723500478       8.040569334518267        # O
110  110  1    79.84084399134512        101.76700723500478       8.040569334518267        # O
111  111  1    84.83075269032211        104.63368349514576       8.040569334518267        # O
112  112  1    94.8111462902044         104.63368349514576       8.040569334518267        # O
113  113  1    104.7909636881584        104.63368349514576       8.040569334518267        # O
114  114  1    114.77135728804069       104.63368349514576       8.040569334518267        # O
115  115  1    124.75117468599467       104.63368349514576       8.040569334518267        # O
116  116  1    134.73156828587696       104.63368349514576       8.040569334518267        # O
117  117  1    144.71138568383097       104.63368349514576       8.040569334518267        # O
118  118  1    154.69177928371326       104.63368349514576       8.040569334518267        # O
119  119  1    4.989908698976999        104.63368349514576       8.040569334518267        # O
120  120  1    14.970302298859282       104.63368349514576       8.040569334518267        # O
121  121  1    24.950119696813275       104.63368349514576       8.040569334518267        # O
122  122  1    34.930513296695565       104.63368349514576       8.040569334518267        # O
123  123  1    44.91033069464956        104.63368349514576       8.040569334518267        # O
124  124  1    54.89072429453184        104.63368349514576       8.040569334518267        # O
125  125  1    64.87054169248584        104.63368349514576       8.040569334518267        # O
126  126  1    74.85093529236812        104.63368349514576       8.040569334518267        # O
127  127  1    84.83075269032211        110.36703601542773       8.040569334518267        # O
128  128  1    94.8111462902044         110.36703601542773       8.040569334518267        # O
129  129  1    104.7909636881584        110.36703601542773       8.040569334518267        # O
130  130  1    114.77135728804069       110.36703601542773       8.040569334518267        # O
131  131  1    124.75117468599467       110.36703601542773       8.040569334518267        # O
132  132  1    134.73156828587696       110.36703601542773       8.040569334518267        # O
133  133  1    144.71138568383097       110.36703601542773       8.040569334518267        # O
134  134  1    154.69177928371326       110.36703601542773       8.040569334518267        # O
135  135  1    4.989908698976999        110.36703601542773       8.040569334518267        # O
136  136  1    14.970302298859282       110.36703601542773       8.040569334518267        # O
137  137  1    24.950119696813275       110.36703601542773       8.040569334518267        # O
138  138  1    34.930513296695565       110.36703601542773       8.040569334518267        # O
139  139  1    44.91033069464956        110.36703601542773       8.040569334518267        # O
140  140  1    54.89072429453184        110.36703601542773       8.040569334518267        # O
141  141  1    64.87054169248584        110.36703601542773       8.040569334518267        # O
142  142  1    74.85093529236812        110.36703601542773       8.040569334518267        # O
143  143  1    79.84084399134512        113.2337122755687        8.040569334518267        # O
144  144  1    89.82123759122742        113.2337122755687        8.040569334518267        # O
145  145  1    99.80105498918141        113.2337122755687        8.040569334518267        # O
146  146  1    109.78144858906369       113.2337122755687        8.040569334518267        # O
147  147  1    119.76126598701768       113.2337122755687        8.040569334518267        # O
148  148  1    129.74165958689997       113.2337122755687        8.040569334518267        # O
149  149  1    139.72147698485398       113.2337122755687        8.040569334518267        # O
150  150  1    149.70187058473624       113.2337122755687        8.040569334518267        # O
151  151  1    159.68168798269025       113.2337122755687        8.040569334518267        # O
152  152  1    9.980393599882284        113.2337122755687        8.040569334518267        # O
153  153  1    19.96021099783628        113.2337122755687        8.040569334518267        # O
154  154  1    29.940604597718565       113.2337122755687        8.040569334518267        # O
155  155  1    39.92042199567256        113.2337122755687        8.040569334518267        # O
156  156  1    49.900815595554846       113.2337122755687        8.040569334518267        # O
157  157  1    59.88063299350884        113.2337122755687        8.040569334518267        # O
158  158  1    69.86102659339113        113.2337122755687        8.040569334518267        # O
159  159  1    89.82123759122742        118.96706479585066       8.040569334518267        # O
160  160  1    99.80105498918141        118.96706479585066       8.040569334518267        # O
161  161  1    109.78144858906369       118.96706479585066       8.040569334518267        # O
162  162  1    119.76126598701768       118.96706479585066       8.040569334518267        # O
163  163  1    129.74165958689997       118.96706479585066       8.040569334518267        # O
164  164  1    139.72147698485398       118.96706479585066       8.040569334518267        # O
165  165  1    149.70187058473624       118.96706479585066       8.040569334518267        # O
166  166  1    159.68168798269025       118.96706479585066       8.040569334518267        # O
167  167  1    9.980393599882284        118.96706479585066       8.040569334518267        # O
168  168  1    19.96021099783628        118.96706479585066       8.040569334518267        # O
169  169  1    29.940604597718565       118.96706479585066       8.040569334518267        # O
170  170  1    39.92042199567256        118.96706479585066       8.040569334518267        # O
171  171  1    49.900815595554846       118.96706479585066       8.040569334518267        # O
172  172  1    59.88063299350884        118.96706479585066       8.040569334518267        # O
173  173  1    69.86102659339113        118.96706479585066       8.040569334518267        # O
174  174  1    79.84084399134512        118.96706479585066       8.040569334518267        # O
175  175  1    84.83075269032211        121.83374105599164       8.040569334518267        # O
176  176  1    94.8111462902044         121.83374105599164       8.040569334518267        # O
177  177  1    104.7909636881584        121.83374105599164       8.040569334518267        # O
178  178  1    114.77135728804069       121.83374105599164       8.040569334518267        # O
179  179  1    124.75117468599467       121.83374105599164       8.040569334518267        # O
180  180  1    134.73156828587696       121.83374105599164       8.040569334518267        # O
181  181  1    144.71138568383097       121.83374105599164       8.040569334518267        # O
182  182  1    154.69177928371326       121.83374105599164       8.040569334518267        # O
183  183  1    4.989908698976999        121.83374105599164       8.040569334518267        # O
184  184  1    14.970302298859282       121.83374105599164       8.040569334518267        # O
185  185  1    24.950119696813275       121.83374105599164       8.040569334518267        # O
186  186  1    34.930513296695565       121.83374105599164       8.040569334518267        # O
187  187  1    44.91033069464956        121.83374105599164       8.040569334518267        # O
188  188  1    54.89072429453184        121.83374105599164       8.040569334518267        # O
189  189  1    64.87054169248584        121.83374105599164       8.040569334518267        # O
190  190  1    74.85093529236812        121.83374105599164       8.040569334518267        # O
191  191  1    84.83075269032211        127.5670935762736        8.040569334518267        # O
192  192  1    94.8111462902044         127.5670935762736        8.040569334518267        # O
193  193  1    104.7909636881584        127.5670935762736        8.040569334518267        # O
194  194  1    114.77135728804069       127.5670935762736        8.040569334518267        # O
195  195  1    124.75117468599467       127.5670935762736        8.040569334518267        # O
196  196  1    134.73156828587696       127.5670935762736        8.040569334518267        # O
197  197  1    144.71138568383097       127.5670935762736        8.040569334518267        # O
198  198  1    154.69177928371326       127.5670935762736        8.040569334518267        # O
199  199  1    4.989908698976999        127.5670935762736        8.040569334518267        # O
200  200  1    14.970302298859282       127.5670935762736        8.040569334518267        # O
201  201  1    24.950119696813275       127.5670935762736        8.040569334518267        # O
202  202  1    34.930513296695565       127.5670935762736        8.040569334518267        # O
203  203  1    44.91033069464956        127.5670935762736        8.040569334518267        # O
204  204  1    54.89072429453184        127.5670935762736        8.040569334518267        # O
205  205  1    64.87054169248584        127.5670935762736        8.040569334518267        # O
206  206  1    74.85093529236812        127.5670935762736        8.040569334518267        # O
207  207  1    79.84084399134512        130.4337698364146        8.040569334518267        # O
208  208  1    89.82123759122742        130.4337698364146        8.040569334518267        # O
209  209  1    99.80105498918141        130.4337698364146        8.040569334518267        # O
210  210  1    109.78144858906369       130.4337698364146        8.040569334518267        # O
211  211  1    119.76126598701768       130.4337698364146        8.040569334518267        # O
212  212  1    129.74165958689997       130.4337698364146        8.040569334518267        # O
213  213  1    139.72147698485398       130.4337698364146        8.040569334518267        # O
214  214  1    149.70187058473624       130.4337698364146        8.040569334518267        # O
215  215  1    159.68168798269025       130.4337698364146        8.040569334518267        # O
216  216  1    9.980393599882284        130.4337698364146        8.040569334518267        # O
217  217  1    19.96021099783628        130.4337698364146        8.040569334518267        # O
218  218  1    29.940604597718565       130.4337698364146        8.040569334518267        # O
219  219  1    39.92042199567256        130.4337698364146        8.040569334518267        # O
220  220  1    49.900815595554846       130.4337698364146        8.040569334518267        # O
221  221  1    59.88063299350884        130.4337698364146        8.040569334518267        # O
222  222  1    69.86102659339113        130.4337698364146        8.040569334518267        # O
223  223  1    89.82123759122742        136.16712235669655       8.040569334518267        # O
224  224  1    99.80105498918141        136.16712235669655       8.040569334518267        # O
225  225  1    109.78144858906369       136.16712235669655       8.040569334518267        # O
226  226  1    119.76126598701768       136.16712235669655       8.040569334518267        # O
227  227  1    129.74165958689997       136.16712235669655       8.040569334518267        # O
228  228  1    139.72147698485398       136.16712235669655       8.040569334518267        # O
229  229  1    149.70187058473624       136.16712235669655       8.040569334518267        # O
230  230  1    159.68168798269025       136.16712235669655       8.040569334518267        # O
231  231  1    9.980393599882284        136.16712235669655       8.040569334518267        # O
232  232  1    19.96021099783628        136.16712235669655       8.040569334518267        # O
233  233  1    29.940604597718565       136.16712235669655       8.040569334518267        # O
234  234  1    39.92042199567256        136.16712235669655       8.040569334518267        # O
235  235  1    49.900815595554846       136.16712235669655       8.040569334518267        # O
236  236  1    59.88063299350884        136.16712235669655       8.040569334518267        # O
237  237  1    69.86102659339113        136.16712235669655       8.040569334518267        # O
238  238  1    79.84084399134512        136.16712235669655       8.040569334518267        # O
239  239  1    84.83075269032211        1.43333813007049         8.040569334518267        # O
240  240  1    94.8111462902044         1.43333813007049         8.040569334518267        # O
241  241  1    104.7909636881584        1.43333813007049         8.040569334518267        # O
242  242  1    114.77135728804069       1.43333813007049         8.040569334518267        # O
243  243  1    124.75117468599467       1.43333813007049         8.040569334518267        # O
244  244  1    134.73156828587696       1.43333813007049         8.040569334518267        # O
245  245  1    144.71138568383097       1.43333813007049         8.040569334518267        # O
246  246  1    154.69177928371326       1.43333813007049         8.040569334518267        # O
247  247  1    4.989908698976999        1.43333813007049         8.040569334518267        # O
248  248  1    14.970302298859282       1.43333813007049         8.040569334518267        # O
249  249  1    24.950119696813275       1.43333813007049         8.040569334518267        # O
250  250  1    34.930513296695565       1.43333813007049         8.040569334518267        # O
251  251  1    44.91033069464956        1.43333813007049         8.040569334518267        # O
252  252  1    54.89072429453184        1.43333813007049         8.040569334518267        # O
253  253  1    64.87054169248584        1.43333813007049         8.040569334518267        # O
254  254  1    74.85093529236812        1.43333813007049         8.040569334518267        # O
255  255  1    84.83075269032211        7.16669065035245         8.040569334518267        # O
256  256  1    94.8111462902044         7.16669065035245         8.040569334518267        # O
257  257  1    104.7909636881584        7.16669065035245         8.040569334518267        # O
258  258  1    114.77135728804069       7.16669065035245         8.040569334518267        # O
259  259  1    124.75117468599467       7.16669065035245         8.040569334518267        # O
260  260  1    134.73156828587696       7.16669065035245         8.040569334518267        # O
261  261  1    144.71138568383097       7.16669065035245         8.040569334518267        # O
262  262  1    154.69177928371326       7.16669065035245         8.040569334518267        # O
263  263  1    4.989908698976999        7.16669065035245         8.040569334518267        # O
264  264  1    14.970302298859282       7.16669065035245         8.040569334518267        # O
265  265  1    24.950119696813275       7.16669065035245         8.040569334518267        # O
266  266  1    34.930513296695565       7.16669065035245         8.040569334518267        # O
267  267  1    44.91033069464956        7.16669065035245         8.040569334518267        # O
268  268  1    54.89072429453184        7.16669065035245         8.040569334518267        # O
269  269  1    64.87054169248584        7.16669065035245         8.040569334518267        # O
270  270  1    74.85093529236812        7.16669065035245         8.040569334518267        # O
271  271  1    79.84084399134512        10.033366910493429       8.040569334518267        # O
272  272  1    89.82123759122742        10.033366910493429       8.040569334518267        # O
273  273  1    99.80105498918141        10.033366910493429       8.040569334518267        # O
274  274  1    109.78144858906369       10.033366910493429       8.040569334518267        # O
275  275  1    119.76126598701768       10.033366910493429       8.040569334518267        # O
276  276  1    129.74165958689997       10.033366910493429       8.040569334518267        # O
277  277  1    139.72147698485398       10.033366910493429       8.040569334518267        # O
278  278  1    149.70187058473624       10.033366910493429       8.040569334518267        # O
279  279  1    159.68168798269025       10.033366910493429       8.040569334518267        # O
280  280  1    9.980393599882284        10.033366910493429       8.040569334518267        # O
281  281  1    19.96021099783628        10.033366910493429       8.040569334518267        # O
282  282  1    29.940604597718565       10.033366910493429       8.040569334518267        # O
283  283  1    39.92042199567256        10.033366910493429       8.040569334518267        # O
284  284  1    49.900815595554846       10.033366910493429       8.040569334518267        # O
285  285  1    59.88063299350884        10.033366910493429       8.040569334518267        # O
286  286  1    69.86102659339113        10.033366910493429       8.040569334518267        # O
287  287  1    89.82123759122742        15.766719430775389       8.040569334518267        # O
288  288  1    99.80105498918141        15.766719430775389       8.040569334518267        # O
289  289  1    109.78144858906369       15.766719430775389       8.040569334518267        # O
290  290  1    119.76126598701768       15.766719430775389       8.040569334518267        # O
291  291  1    129.74165958689997       15.766719430775389       8.040569334518267        # O
292  292  1    139.72147698485398       15.766719430775389       8.040569334518267        # O
293  293  1    149.70187058473624       15.766719430775389       8.040569334518267        # O
294  294  1    159.68168798269025       15.766719430775389       8.040569334518267        # O
295  295  1    9.980393599882284        15.766719430775389       8.040569334518267        # O
296  296  1    19.96021099783628        15.766719430775389       8.040569334518267        # O
297  297  1    29.940604597718565       15.766719430775389       8.040569334518267        # O
298  298  1    39.92042199567256        15.766719430775389       8.040569334518267        # O
299  299  1    49.900815595554846       15.766719430775389       8.040569334518267        # O
300  300  1    59.88063299350884        15.766719430775389       8.040569334518267        # O
301  301  1    69.86102659339113        15.766719430775389       8.040569334518267        # O
302  302  1    79.84084399134512        15.766719430775389       8.040569334518267        # O
303  303  1    84.83075269032211        18.63339569091637        8.040569334518267        # O
304  304  1    94.8111462902044         18.63339569091637        8.040569334518267        # O
305  305  1    104.7909636881584        18.63339569091637        8.040569334518267        # O
306  306  1    114.77135728804069       18.63339569091637        8.040569334518267        # O
307  307  1    124.75117468599467       18.63339569091637        8.040569334518267        # O
308  308  1    134.73156828587696       18.63339569091637        8.040569334518267        # O
309  309  1    144.71138568383097       18.63339569091637        8.040569334518267        # O
310  310  1    154.69177928371326       18.63339569091637        8.040569334518267        # O
311  311  1    4.989908698976999        18.63339569091637        8.040569334518267        # O
312  312  1    14.970302298859282       18.63339569091637        8.040569334518267        # O
313  313  1    24.950119696813275       18.63339569091637        8.040569334518267        # O
314  314  1    34.930513296695565       18.63339569091637        8.040569334518267        # O