DATA FILE Produced from netmc results (cf David Morley)
2640 atoms
8800 bonds
0 angles
0 dihedrals
0 impropers
2 atom types
0 bond types
2 bond types
0 angle types
0 dihedral types
0 improper types
0.00000 147.29249357633483 xlo xhi
0.00000 127.55904086070353 ylo yhi
0.0000 200.0000 zlo zhi

# Pair Coeffs
#
# 1  O
# 2  Si

# Bond Coeffs
# 
# 1  O-O
# 2  Si-O
# 3  O-O rep
# 4  Si-Si rep

 Masses

1 28.10000 # O 
2 32.01000 # Si

 Atoms # molecular

1    1    2    115.07207375244782       70.42322047518007        5.0                      # Si
2    2    2    115.07207375244782       70.42322047518007        11.081138669036534       # Si
3    3    2    124.27811603056551       70.42322047518007        5.0                      # Si
4    4    2    124.27811603056551       70.42322047518007        11.081138669036534       # Si
5    5    2    133.48362681267963       70.42322047518007        5.0                      # Si
6    6    2    133.48362681267963       70.42322047518007        11.081138669036534       # Si
7    7    2    142.6896690907973        70.42322047518007        5.0                      # Si
8    8    2    142.6896690907973        70.42322047518007        11.081138669036534       # Si
9    9    2    4.602755391057052        70.42322047518007        5.0                      # Si
10   10   2    4.602755391057052        70.42322047518007        11.081138669036534       # Si
11   11   2    13.808797669174744       70.42322047518007        5.0                      # Si
12   12   2    13.808797669174744       70.42322047518007        11.081138669036534       # Si
13   13   2    23.014308451288848       70.42322047518007        5.0                      # Si
14   14   2    23.014308451288848       70.42322047518007        11.081138669036534       # Si
15   15   2    32.22035072940654        70.42322047518007        5.0                      # Si
16   16   2    32.22035072940654        70.42322047518007        11.081138669036534       # Si
17   17   2    41.425861511520644       70.42322047518007        5.0                      # Si
18   18   2    41.425861511520644       70.42322047518007        11.081138669036534       # Si
19   19   2    110.46931836139079       73.0807004931114         5.0                      # Si
20   20   2    110.46931836139079       73.0807004931114         11.081138669036534       # Si
21   21   2    119.67536063950847       73.0807004931114         5.0                      # Si
22   22   2    119.67536063950847       73.0807004931114         11.081138669036534       # Si
23   23   2    128.88087142162257       73.0807004931114         5.0                      # Si
24   24   2    128.88087142162257       73.0807004931114         11.081138669036534       # Si
25   25   2    138.08691369974025       73.0807004931114         5.0                      # Si
26   26   2    138.08691369974025       73.0807004931114         11.081138669036534       # Si
27   27   2    147.29242448185437       73.0807004931114         5.0                      # Si
28   28   2    147.29242448185437       73.0807004931114         11.081138669036534       # Si
29   29   2    9.20604227811769         73.0807004931114         5.0                      # Si
30   30   2    9.20604227811769         73.0807004931114         11.081138669036534       # Si
31   31   2    18.411553060231796       73.0807004931114         5.0                      # Si
32   32   2    18.411553060231796       73.0807004931114         11.081138669036534       # Si
33   33   2    27.61759533834949        73.0807004931114         5.0                      # Si
34   34   2    27.61759533834949        73.0807004931114         11.081138669036534       # Si
35   35   2    36.82310612046359        73.0807004931114         5.0                      # Si
36   36   2    36.82310612046359        73.0807004931114         11.081138669036534       # Si
37   37   2    46.02914839858128        73.0807004931114         5.0                      # Si
38   38   2    46.02914839858128        73.0807004931114         11.081138669036534       # Si
39   39   2    110.46931836139079       78.39566052897405        5.0                      # Si
40   40   2    110.46931836139079       78.39566052897405        11.081138669036534       # Si
41   41   2    119.67536063950847       78.39566052897405        5.0                      # Si
42   42   2    119.67536063950847       78.39566052897405        11.081138669036534       # Si
43   43   2    128.88087142162257       78.39566052897405        5.0                      # Si
44   44   2    128.88087142162257       78.39566052897405        11.081138669036534       # Si
45   45   2    138.08691369974025       78.39566052897405        5.0                      # Si
46   46   2    138.08691369974025       78.39566052897405        11.081138669036534       # Si
47   47   2    147.29242448185437       78.39566052897405        5.0                      # Si
48   48   2    147.29242448185437       78.39566052897405        11.081138669036534       # Si
49   49   2    9.20604227811769         78.39566052897405        5.0                      # Si
50   50   2    9.20604227811769         78.39566052897405        11.081138669036534       # Si
51   51   2    18.411553060231796       78.39566052897405        5.0                      # Si
52   52   2    18.411553060231796       78.39566052897405        11.081138669036534       # Si
53   53   2    27.61759533834949        78.39566052897405        5.0                      # Si
54   54   2    27.61759533834949        78.39566052897405        11.081138669036534       # Si
55   55   2    36.82310612046359        78.39566052897405        5.0                      # Si
56   56   2    36.82310612046359        78.39566052897405        11.081138669036534       # Si
57   57   2    46.02914839858128        78.39566052897405        5.0                      # Si
58   58   2    46.02914839858128        78.39566052897405        11.081138669036534       # Si
59   59   2    115.07207375244782       81.05314054690537        5.0                      # Si
60   60   2    115.07207375244782       81.05314054690537        11.081138669036534       # Si
61   61   2    124.27811603056551       81.05314054690537        5.0                      # Si
62   62   2    124.27811603056551       81.05314054690537        11.081138669036534       # Si
63   63   2    133.48362681267963       81.05314054690537        5.0                      # Si
64   64   2    133.48362681267963       81.05314054690537        11.081138669036534       # Si
65   65   2    142.6896690907973        81.05314054690537        5.0                      # Si
66   66   2    142.6896690907973        81.05314054690537        11.081138669036534       # Si
67   67   2    4.602755391057052        81.05314054690537        5.0                      # Si
68   68   2    4.602755391057052        81.05314054690537        11.081138669036534       # Si
69   69   2    13.808797669174744       81.05314054690537        5.0                      # Si
70   70   2    13.808797669174744       81.05314054690537        11.081138669036534       # Si
71   71   2    23.014308451288848       81.05314054690537        5.0                      # Si
72   72   2    23.014308451288848       81.05314054690537        11.081138669036534       # Si
73   73   2    32.22035072940654        81.05314054690537        5.0                      # Si
74   74   2    32.22035072940654        81.05314054690537        11.081138669036534       # Si
75   75   2    41.425861511520644       81.05314054690537        5.0                      # Si
76   76   2    41.425861511520644       81.05314054690537        11.081138669036534       # Si
77   77   2    105.86656297033372       86.36810058276801        5.0                      # Si
78   78   2    105.86656297033372       86.36810058276801        11.081138669036534       # Si
79   79   2    115.07207375244782       86.36810058276801        5.0                      # Si
80   80   2    115.07207375244782       86.36810058276801        11.081138669036534       # Si
81   81   2    124.27811603056551       86.36810058276801        5.0                      # Si
82   82   2    124.27811603056551       86.36810058276801        11.081138669036534       # Si
83   83   2    133.48362681267963       86.36810058276801        5.0                      # Si
84   84   2    133.48362681267963       86.36810058276801        11.081138669036534       # Si
85   85   2    142.6896690907973        86.36810058276801        5.0                      # Si
86   86   2    142.6896690907973        86.36810058276801        11.081138669036534       # Si
87   87   2    4.602755391057052        86.36810058276801        5.0                      # Si
88   88   2    4.602755391057052        86.36810058276801        11.081138669036534       # Si
89   89   2    13.808797669174744       86.36810058276801        5.0                      # Si
90   90   2    13.808797669174744       86.36810058276801        11.081138669036534       # Si
91   91   2    23.014308451288848       86.36810058276801        5.0                      # Si
92   92   2    23.014308451288848       86.36810058276801        11.081138669036534       # Si
93   93   2    32.22035072940654        86.36810058276801        5.0                      # Si
94   94   2    32.22035072940654        86.36810058276801        11.081138669036534       # Si
95   95   2    41.425861511520644       86.36810058276801        5.0                      # Si
96   96   2    41.425861511520644       86.36810058276801        11.081138669036534       # Si
97   97   2    50.631903789638336       86.36810058276801        5.0                      # Si
98   98   2    50.631903789638336       86.36810058276801        11.081138669036534       # Si
99   99   2    110.46931836139079       89.02558060069934        5.0                      # Si
100  100  2    110.46931836139079       89.02558060069934        11.081138669036534       # Si
101  101  2    119.67536063950847       89.02558060069934        5.0                      # Si
102  102  2    119.67536063950847       89.02558060069934        11.081138669036534       # Si
103  103  2    128.88087142162257       89.02558060069934        5.0                      # Si
104  104  2    128.88087142162257       89.02558060069934        11.081138669036534       # Si
105  105  2    138.08691369974025       89.02558060069934        5.0                      # Si
106  106  2    138.08691369974025       89.02558060069934        11.081138669036534       # Si
107  107  2    147.29242448185437       89.02558060069934        5.0                      # Si
108  108  2    147.29242448185437       89.02558060069934        11.081138669036534       # Si
109  109  2    9.20604227811769         89.02558060069934        5.0                      # Si
110  110  2    9.20604227811769         89.02558060069934        11.081138669036534       # Si
111  111  2    18.411553060231796       89.02558060069934        5.0                      # Si
112  112  2    18.411553060231796       89.02558060069934        11.081138669036534       # Si
113  113  2    27.61759533834949        89.02558060069934        5.0                      # Si
114  114  2    27.61759533834949        89.02558060069934        11.081138669036534       # Si
115  115  2    36.82310612046359        89.02558060069934        5.0                      # Si
116  116  2    36.82310612046359        89.02558060069934        11.081138669036534       # Si
117  117  2    46.02914839858128        89.02558060069934        5.0                      # Si
118  118  2    46.02914839858128        89.02558060069934        11.081138669036534       # Si
119  119  2    101.26380757927667       94.34054063656198        5.0                      # Si
120  120  2    101.26380757927667       94.34054063656198        11.081138669036534       # Si
121  121  2    110.46931836139079       94.34054063656198        5.0                      # Si
122  122  2    110.46931836139079       94.34054063656198        11.081138669036534       # Si
123  123  2    119.67536063950847       94.34054063656198        5.0                      # Si
124  124  2    119.67536063950847       94.34054063656198        11.081138669036534       # Si
125  125  2    128.88087142162257       94.34054063656198        5.0                      # Si
126  126  2    128.88087142162257       94.34054063656198        11.081138669036534       # Si
127  127  2    138.08691369974025       94.34054063656198        5.0                      # Si
128  128  2    138.08691369974025       94.34054063656198        11.081138669036534       # Si
129  129  2    147.29242448185437       94.34054063656198        5.0                      # Si
130  130  2    147.29242448185437       94.34054063656198        11.081138669036534       # Si
131  131  2    9.20604227811769         94.34054063656198        5.0                      # Si
132  132  2    9.20604227811769         94.34054063656198        11.081138669036534       # Si
133  133  2    18.411553060231796       94.34054063656198        5.0                      # Si
134  134  2    18.411553060231796       94.34054063656198        11.081138669036534       # Si
135  135  2    27.61759533834949        94.34054063656198        5.0                      # Si
136  136  2    27.61759533834949        94.34054063656198        11.081138669036534       # Si
137  137  2    36.82310612046359        94.34054063656198        5.0                      # Si
138  138  2    36.82310612046359        94.34054063656198        11.081138669036534       # Si
139  139  2    46.02914839858128        94.34054063656198        5.0                      # Si
140  140  2    46.02914839858128        94.34054063656198        11.081138669036534       # Si
141  141  2    55.234659180695395       94.34054063656198        5.0                      # Si
142  142  2    55.234659180695395       94.34054063656198        11.081138669036534       # Si
143  143  2    105.86656297033372       96.9980206544933         5.0                      # Si
144  144  2    105.86656297033372       96.9980206544933         11.081138669036534       # Si
145  145  2    115.07207375244782       96.9980206544933         5.0                      # Si
146  146  2    115.07207375244782       96.9980206544933         11.081138669036534       # Si
147  147  2    124.27811603056551       96.9980206544933         5.0                      # Si
148  148  2    124.27811603056551       96.9980206544933         11.081138669036534       # Si
149  149  2    133.48362681267963       96.9980206544933         5.0                      # Si
150  150  2    133.48362681267963       96.9980206544933         11.081138669036534       # Si
151  151  2    142.6896690907973        96.9980206544933         5.0                      # Si
152  152  2    142.6896690907973        96.9980206544933         11.081138669036534       # Si
153  153  2    4.602755391057052        96.9980206544933         5.0                      # Si
154  154  2    4.602755391057052        96.9980206544933         11.081138669036534       # Si
155  155  2    13.808797669174744       96.9980206544933         5.0                      # Si
156  156  2    13.808797669174744       96.9980206544933         11.081138669036534       # Si
157  157  2    23.014308451288848       96.9980206544933         5.0                      # Si
158  158  2    23.014308451288848       96.9980206544933         11.081138669036534       # Si
159  159  2    32.22035072940654        96.9980206544933         5.0                      # Si
160  160  2    32.22035072940654        96.9980206544933         11.081138669036534       # Si
161  161  2    41.425861511520644       96.9980206544933         5.0                      # Si
162  162  2    41.425861511520644       96.9980206544933         11.081138669036534       # Si
163  163  2    50.631903789638336       96.9980206544933         5.0                      # Si
164  164  2    50.631903789638336       96.9980206544933         11.081138669036534       # Si
165  165  2    96.66052069221601        102.31298069035596       5.0                      # Si
166  166  2    96.66052069221601        102.31298069035596       11.081138669036534       # Si
167  167  2    105.86656297033372       102.31298069035596       5.0                      # Si
168  168  2    105.86656297033372       102.31298069035596       11.081138669036534       # Si
169  169  2    115.07207375244782       102.31298069035596       5.0                      # Si
170  170  2    115.07207375244782       102.31298069035596       11.081138669036534       # Si
171  171  2    124.27811603056551       102.31298069035596       5.0                      # Si
172  172  2    124.27811603056551       102.31298069035596       11.081138669036534       # Si
173  173  2    133.48362681267963       102.31298069035596       5.0                      # Si
174  174  2    133.48362681267963       102.31298069035596       11.081138669036534       # Si
175  175  2    142.6896690907973        102.31298069035596       5.0                      # Si
176  176  2    142.6896690907973        102.31298069035596       11.081138669036534       # Si
177  177  2    4.602755391057052        102.31298069035596       5.0                      # Si
178  178  2    4.602755391057052        102.31298069035596       11.081138669036534       # Si
179  179  2    13.808797669174744       102.31298069035596       5.0                      # Si
180  180  2    13.808797669174744       102.31298069035596       11.081138669036534       # Si
181  181  2    23.014308451288848       102.31298069035596       5.0                      # Si
182  182  2    23.014308451288848       102.31298069035596       11.081138669036534       # Si
183  183  2    32.22035072940654        102.31298069035596       5.0                      # Si
184  184  2    32.22035072940654        102.31298069035596       11.081138669036534       # Si
185  185  2    41.425861511520644       102.31298069035596       5.0                      # Si
186  186  2    41.425861511520644       102.31298069035596       11.081138669036534       # Si
187  187  2    50.631903789638336       102.31298069035596       5.0                      # Si
188  188  2    50.631903789638336       102.31298069035596       11.081138669036534       # Si
189  189  2    59.83741457175243        102.31298069035596       5.0                      # Si
190  190  2    59.83741457175243        102.31298069035596       11.081138669036534       # Si
191  191  2    73.64621224092718        104.97046070828728       5.0                      # Si
192  192  2    73.64621224092718        104.97046070828728       11.081138669036534       # Si
193  193  2    82.85225451904488        104.97046070828728       5.0                      # Si
194  194  2    82.85225451904488        104.97046070828728       11.081138669036534       # Si
195  195  2    92.05776530115898        104.97046070828728       5.0                      # Si
196  196  2    92.05776530115898        104.97046070828728       11.081138669036534       # Si
197  197  2    101.26380757927667       104.97046070828728       5.0                      # Si
198  198  2    101.26380757927667       104.97046070828728       11.081138669036534       # Si
199  199  2    110.46931836139079       104.97046070828728       5.0                      # Si
200  200  2    110.46931836139079       104.97046070828728       11.081138669036534       # Si
201  201  2    119.67536063950847       104.97046070828728       5.0                      # Si
202  202  2    119.67536063950847       104.97046070828728       11.081138669036534       # Si
203  203  2    128.88087142162257       104.97046070828728       5.0                      # Si
204  204  2    128.88087142162257       104.97046070828728       11.081138669036534       # Si
205  205  2    138.08691369974025       104.97046070828728       5.0                      # Si
206  206  2    138.08691369974025       104.97046070828728       11.081138669036534       # Si
207  207  2    147.29242448185437       104.97046070828728       5.0                      # Si
208  208  2    147.29242448185437       104.97046070828728       11.081138669036534       # Si
209  209  2    9.20604227811769         104.97046070828728       5.0                      # Si
210  210  2    9.20604227811769         104.97046070828728       11.081138669036534       # Si
211  211  2    18.411553060231796       104.97046070828728       5.0                      # Si
212  212  2    18.411553060231796       104.97046070828728       11.081138669036534       # Si
213  213  2    27.61759533834949        104.97046070828728       5.0                      # Si
214  214  2    27.61759533834949        104.97046070828728       11.081138669036534       # Si
215  215  2    36.82310612046359        104.97046070828728       5.0                      # Si
216  216  2    36.82310612046359        104.97046070828728       11.081138669036534       # Si
217  217  2    46.02914839858128        104.97046070828728       5.0                      # Si
218  218  2    46.02914839858128        104.97046070828728       11.081138669036534       # Si
219  219  2    55.234659180695395       104.97046070828728       5.0                      # Si
220  220  2    55.234659180695395       104.97046070828728       11.081138669036534       # Si
221  221  2    64.44070145881308        104.97046070828728       5.0                      # Si
222  222  2    64.44070145881308        104.97046070828728       11.081138669036534       # Si
223  223  2    82.85225451904488        110.28542074414993       5.0                      # Si
224  224  2    82.85225451904488        110.28542074414993       11.081138669036534       # Si
225  225  2    92.05776530115898        110.28542074414993       5.0                      # Si
226  226  2    92.05776530115898        110.28542074414993       11.081138669036534       # Si
227  227  2    101.26380757927667       110.28542074414993       5.0                      # Si
228  228  2    101.26380757927667       110.28542074414993       11.081138669036534       # Si
229  229  2    110.46931836139079       110.28542074414993       5.0                      # Si
230  230  2    110.46931836139079       110.28542074414993       11.081138669036534       # Si
231  231  2    119.67536063950847       110.28542074414993       5.0                      # Si
232  232  2    119.67536063950847       110.28542074414993       11.081138669036534       # Si
233  233  2    128.88087142162257       110.28542074414993       5.0                      # Si
234  234  2    128.88087142162257       110.28542074414993       11.081138669036534       # Si
235  235  2    138.08691369974025       110.28542074414993       5.0                      # Si
236  236  2    138.08691369974025       110.28542074414993       11.081138669036534       # Si
237  237  2    147.29242448185437       110.28542074414993       5.0                      # Si
238  238  2    147.29242448185437       110.28542074414993       11.081138669036534       # Si
239  239  2    9.20604227811769         110.28542074414993       5.0                      # Si
240  240  2    9.20604227811769         110.28542074414993       11.081138669036534       # Si
241  241  2    18.411553060231796       110.28542074414993       5.0                      # Si
242  242  2    18.411553060231796       110.28542074414993       11.081138669036534       # Si
243  243  2    27.61759533834949        110.28542074414993       5.0                      # Si
244  244  2    27.61759533834949        110.28542074414993       11.081138669036534       # Si
245  245  2    36.82310612046359        110.28542074414993       5.0                      # Si
246  246  2    36.82310612046359        110.28542074414993       11.081138669036534       # Si
247  247  2    46.02914839858128        110.28542074414993       5.0                      # Si
248  248  2    46.02914839858128        110.28542074414993       11.081138669036534       # Si
249  249  2    55.234659180695395       110.28542074414993       5.0                      # Si
250  250  2    55.234659180695395       110.28542074414993       11.081138669036534       # Si
251  251  2    64.44070145881308        110.28542074414993       5.0                      # Si
252  252  2    64.44070145881308        110.28542074414993       11.081138669036534       # Si
253  253  2    73.64621224092718        110.28542074414993       5.0                      # Si
254  254  2    73.64621224092718        110.28542074414993       11.081138669036534       # Si
255  255  2    78.24896763198424        112.94290076208124       5.0                      # Si
256  256  2    78.24896763198424        112.94290076208124       11.081138669036534       # Si
257  257  2    87.45500991010192        112.94290076208124       5.0                      # Si
258  258  2    87.45500991010192        112.94290076208124       11.081138669036534       # Si
259  259  2    96.66052069221601        112.94290076208124       5.0                      # Si
260  260  2    96.66052069221601        112.94290076208124       11.081138669036534       # Si
261  261  2    105.86656297033372       112.94290076208124       5.0                      # Si
262  262  2    105.86656297033372       112.94290076208124       11.081138669036534       # Si
263  263  2    115.07207375244782       112.94290076208124       5.0                      # Si
264  264  2    115.07207375244782       112.94290076208124       11.081138669036534       # Si
265  265  2    124.27811603056551       112.94290076208124       5.0                      # Si
266  266  2    124.27811603056551       112.94290076208124       11.081138669036534       # Si
267  267  2    133.48362681267963       112.94290076208124       5.0                      # Si
268  268  2    133.48362681267963       112.94290076208124       11.081138669036534       # Si
269  269  2    142.6896690907973        112.94290076208124       5.0                      # Si
270  270  2    142.6896690907973        112.94290076208124       11.081138669036534       # Si
271  271  2    4.602755391057052        112.94290076208124       5.0                      # Si
272  272  2    4.602755391057052        112.94290076208124       11.081138669036534       # Si
273  273  2    13.808797669174744       112.94290076208124       5.0                      # Si
274  274  2    13.808797669174744       112.94290076208124       11.081138669036534       # Si
275  275  2    23.014308451288848       112.94290076208124       5.0                      # Si
276  276  2    23.014308451288848       112.94290076208124       11.081138669036534       # Si
277  277  2    32.22035072940654        112.94290076208124       5.0                      # Si
278  278  2    32.22035072940654        112.94290076208124       11.081138669036534       # Si
279  279  2    41.425861511520644       112.94290076208124       5.0                      # Si
280  280  2    41.425861511520644       112.94290076208124       11.081138669036534       # Si
281  281  2    50.631903789638336       112.94290076208124       5.0                      # Si
282  282  2    50.631903789638336       112.94290076208124       11.081138669036534       # Si
283  283  2    59.83741457175243        112.94290076208124       5.0                      # Si
284  284  2    59.83741457175243        112.94290076208124       11.081138669036534       # Si
285  285  2    69.04345684987013        112.94290076208124       5.0                      # Si
286  286  2    69.04345684987013        112.94290076208124       11.081138669036534       # Si
287  287  2    78.24896763198424        118.25786079794389       5.0                      # Si
288  288  2    78.24896763198424        118.25786079794389       11.081138669036534       # Si
289  289  2    87.45500991010192        118.25786079794389       5.0                      # Si
290  290  2    87.45500991010192        118.25786079794389       11.081138669036534       # Si
291  291  2    96.66052069221601        118.25786079794389       5.0                      # Si
292  292  2    96.66052069221601        118.25786079794389       11.081138669036534       # Si
293  293  2    105.86656297033372       118.25786079794389       5.0                      # Si
294  294  2    105.86656297033372       118.25786079794389       11.081138669036534       # Si
295  295  2    115.07207375244782       118.25786079794389       5.0                      # Si
296  296  2    115.07207375244782       118.25786079794389       11.081138669036534       # Si
297  297  2    124.27811603056551       118.25786079794389       5.0                      # Si
298  298  2    124.27811603056551       118.25786079794389       11.081138669036534       # Si
299  299  2    133.48362681267963       118.25786079794389       5.0                      # Si
300  300  2    133.48362681267963       118.25786079794389       11.081138669036534       # Si
301  301  2    142.6896690907973        118.25786079794389       5.0                      # Si
302  302  2    142.6896690907973        118.25786079794389       11.081138669036534       # Si
303  303  2    4.602755391057052        118.25786079794389       5.0                      # Si
304  304  2    4.602755391057052        118.25786079794389       11.081138669036534       # Si
305  305  2    13.808797669174744       118.25786079794389       5.0                      # Si
306  306  2    13.808797669174744       118.25786079794389       11.081138669036534       # Si
307  307  2    23.014308451288848       118.25786079794389       5.0                      # Si
308  308  2    23.014308451288848       118.25786079794389       11.081138669036534       # Si
309  309  2    32.22035072940654        118.25786079794389       5.0                      # Si
310  310  2    32.22035072940654        118.25786079794389       11.081138669036534       # Si
311  311  2    41.425861511520644       118.25786079794389       5.0                      # Si