LAMMPS (23 Jun 2022 - Update 2)
OMP_NUM_THREADS environment is not set. Defaulting to 1 thread. (src/comm.cpp:98)
  using 1 OpenMP thread(s) per MPI task
Reading data file ...
  orthogonal box = (0 0 -0.5) to (27.658633 23.953079 0.5)
  1 by 1 by 1 MPI processor grid
  reading atoms ...
  510 atoms
  scanning bonds ...
  3 = max bonds/atom
  scanning angles ...
  3 = max angles/atom
  reading bonds ...
  765 bonds
  reading angles ...
  1530 angles
Finding 1-2 1-3 1-4 neighbors ...
  special bond factors lj:    0        0        0       
  special bond factors coul:  0        0        0       
     3 = max # of 1-2 neighbors
     6 = max # of 1-3 neighbors
    18 = max # of 1-4 neighbors
    19 = max # of special neighbors
  special bonds CPU = 0.000 seconds
  read_data CPU = 0.008 seconds
Changing box ...
  orthogonal box = (0.033598298 0 -0.5) to (27.625035 23.953079 0.5)
  orthogonal box = (0.033598298 -0.034033597 -0.5) to (27.625035 23.987113 0.5)
WARNING: Using 'neigh_modify every 1 delay 0 check yes' setting during minimization (src/min.cpp:187)
Setting up sd style minimization ...
  Unit style    : electron
  Current step  : 0
WARNING: No pairwise cutoff or binsize set. Atom sorting therefore disabled. (src/atom.cpp:2142)
WARNING: Inconsistent image flags (src/domain.cpp:819)
Per MPI rank memory allocation (min/avg/max) = 9.79 | 9.79 | 9.79 Mbytes
---
keywords: ['Step', 'PotEng', 'KinEng', 'E_pair', 'E_bond', 'TotEng', 'Volume', 'Temp', ]
data:
  - [0, 1.15250821929943, 0, 0, 0.843610271537261, 1.15250821929943, 662.777942095724, 0, ]
  - [287, 0.313750792189159, 0, 0, 0.0918929307434707, 0.313750792189159, 662.777942095724, 0, ]
...
Loop time of 0.0550941 on 1 procs for 287 steps with 510 atoms

99.8% CPU use with 1 MPI tasks x 1 OpenMP threads

Minimization stats:
  Stopping criterion = energy tolerance
  Energy initial, next-to-last, final = 
      1.15250821929943  0.313751102954332  0.313750792189159
  Force two-norm initial, final = 2.6939529 0.0016526725
  Force max component initial, final = 1.3283316 0.00011144168
  Final line search alpha, max atom move = 1 0.00011144168
  Iterations, force evaluations = 287 571

MPI task timing breakdown:
Section |  min time  |  avg time  |  max time  |%varavg| %total
---------------------------------------------------------------
Pair    | 0          | 0          | 0          |   0.0 |  0.00
Bond    | 0.048678   | 0.048678   | 0.048678   |   0.0 | 88.36
Neigh   | 0          | 0          | 0          |   0.0 |  0.00
Comm    | 0.001322   | 0.001322   | 0.001322   |   0.0 |  2.40
Output  | 0          | 0          | 0          |   0.0 |  0.00
Modify  | 0          | 0          | 0          |   0.0 |  0.00
Other   |            | 0.005094   |            |       |  9.25

Nlocal:            510 ave         510 max         510 min
Histogram: 1 0 0 0 0 0 0 0 0 0
Nghost:            349 ave         349 max         349 min
Histogram: 1 0 0 0 0 0 0 0 0 0
Neighs:              0 ave           0 max           0 min
Histogram: 1 0 0 0 0 0 0 0 0 0

Total # of neighbors = 0
Ave neighs/atom = 0
Ave special neighs/atom = 17.996078
Neighbor list builds = 0
Dangerous builds = 0
Total wall time: 0:00:00
