DATA FILE Produced from netmc results (cf David Morley)
490 atoms
1 atom types
0.00000 38.4974545709034 xlo xhi
0.00000 33.33977354452186 ylo yhi

 Masses

1 12.0000 # Si

 Atoms # molecular

1    1    25.26390798197695        18.40633331103811        0.0                     # C
2    1    27.670067221829715       18.40633331103811        0.0                     # C
3    1    30.07608754595938        18.40633331103811        0.0                     # C
4    1    32.48224678581214        18.40633331103811        0.0                     # C
5    1    34.8882671099418         18.40633331103811        0.0                     # C
6    1    37.29442634979457        18.40633331103811        0.0                     # C
7    1    1.2030101620648306       18.40633331103811        0.0                     # C
8    1    3.609169401917594        18.40633331103811        0.0                     # C
9    1    6.015189726047255        18.40633331103811        0.0                     # C
10   1    8.421348965900018        18.40633331103811        0.0                     # C
11   1    10.827369290029681       18.40633331103811        0.0                     # C
12   1    13.233528529882443       18.40633331103811        0.0                     # C
13   1    15.639548854012103       18.40633331103811        0.0                     # C
14   1    24.06089781991212        19.100911926548985       0.0                     # C
15   1    26.467057059764887       19.100911926548985       0.0                     # C
16   1    28.87307738389455        19.100911926548985       0.0                     # C
17   1    31.279236623747313       19.100911926548985       0.0                     # C
18   1    33.68525694787697        19.100911926548985       0.0                     # C
19   1    36.091416187729735       19.100911926548985       0.0                     # C
20   1    38.4974365118594         19.100911926548985       0.0                     # C
21   1    2.406159239852763        19.100911926548985       0.0                     # C
22   1    4.812179563982425        19.100911926548985       0.0                     # C
23   1    7.218338803835188        19.100911926548985       0.0                     # C
24   1    9.62435912796485         19.100911926548985       0.0                     # C
25   1    12.030518367817614       19.100911926548985       0.0                     # C
26   1    14.436538691947275       19.100911926548985       0.0                     # C
27   1    16.842697931800036       19.100911926548985       0.0                     # C
28   1    24.06089781991212        20.49006915757073        0.0                     # C
29   1    26.467057059764887       20.49006915757073        0.0                     # C
30   1    28.87307738389455        20.49006915757073        0.0                     # C
31   1    31.279236623747313       20.49006915757073        0.0                     # C
32   1    33.68525694787697        20.49006915757073        0.0                     # C
33   1    36.091416187729735       20.49006915757073        0.0                     # C
34   1    38.4974365118594         20.49006915757073        0.0                     # C
35   1    2.406159239852763        20.49006915757073        0.0                     # C
36   1    4.812179563982425        20.49006915757073        0.0                     # C
37   1    7.218338803835188        20.49006915757073        0.0                     # C
38   1    9.62435912796485         20.49006915757073        0.0                     # C
39   1    12.030518367817614       20.49006915757073        0.0                     # C
40   1    14.436538691947275       20.49006915757073        0.0                     # C
41   1    16.842697931800036       20.49006915757073        0.0                     # C
42   1    25.26390798197695        21.1846477730816         0.0                     # C
43   1    27.670067221829715       21.1846477730816         0.0                     # C
44   1    30.07608754595938        21.1846477730816         0.0                     # C
45   1    32.48224678581214        21.1846477730816         0.0                     # C
46   1    34.8882671099418         21.1846477730816         0.0                     # C
47   1    37.29442634979457        21.1846477730816         0.0                     # C
48   1    1.2030101620648306       21.1846477730816         0.0                     # C
49   1    3.609169401917594        21.1846477730816         0.0                     # C
50   1    6.015189726047255        21.1846477730816         0.0                     # C
51   1    8.421348965900018        21.1846477730816         0.0                     # C
52   1    10.827369290029681       21.1846477730816         0.0                     # C
53   1    13.233528529882443       21.1846477730816         0.0                     # C
54   1    15.639548854012103       21.1846477730816         0.0                     # C
55   1    22.857887657847293       22.573805004103345       0.0                     # C
56   1    25.26390798197695        22.573805004103345       0.0                     # C
57   1    27.670067221829715       22.573805004103345       0.0                     # C
58   1    30.07608754595938        22.573805004103345       0.0                     # C
59   1    32.48224678581214        22.573805004103345       0.0                     # C
60   1    34.8882671099418         22.573805004103345       0.0                     # C
61   1    37.29442634979457        22.573805004103345       0.0                     # C
62   1    1.2030101620648306       22.573805004103345       0.0                     # C
63   1    3.609169401917594        22.573805004103345       0.0                     # C
64   1    6.015189726047255        22.573805004103345       0.0                     # C
65   1    8.421348965900018        22.573805004103345       0.0                     # C
66   1    10.827369290029681       22.573805004103345       0.0                     # C
67   1    13.233528529882443       22.573805004103345       0.0                     # C
68   1    15.639548854012103       22.573805004103345       0.0                     # C
69   1    18.045708093864867       22.573805004103345       0.0                     # C
70   1    19.2487182559297         23.26838361961422        0.0                     # C
71   1    21.65487749578246        23.26838361961422        0.0                     # C
72   1    24.06089781991212        23.26838361961422        0.0                     # C
73   1    26.467057059764887       23.26838361961422        0.0                     # C
74   1    28.87307738389455        23.26838361961422        0.0                     # C
75   1    31.279236623747313       23.26838361961422        0.0                     # C
76   1    33.68525694787697        23.26838361961422        0.0                     # C
77   1    36.091416187729735       23.26838361961422        0.0                     # C
78   1    38.4974365118594         23.26838361961422        0.0                     # C
79   1    2.406159239852763        23.26838361961422        0.0                     # C
80   1    4.812179563982425        23.26838361961422        0.0                     # C
81   1    7.218338803835188        23.26838361961422        0.0                     # C
82   1    9.62435912796485         23.26838361961422        0.0                     # C
83   1    12.030518367817614       23.26838361961422        0.0                     # C
84   1    14.436538691947275       23.26838361961422        0.0                     # C
85   1    16.842697931800036       23.26838361961422        0.0                     # C
86   1    21.65487749578246        24.65754085063596        0.0                     # C
87   1    24.06089781991212        24.65754085063596        0.0                     # C
88   1    26.467057059764887       24.65754085063596        0.0                     # C
89   1    28.87307738389455        24.65754085063596        0.0                     # C
90   1    31.279236623747313       24.65754085063596        0.0                     # C
91   1    33.68525694787697        24.65754085063596        0.0                     # C
92   1    36.091416187729735       24.65754085063596        0.0                     # C
93   1    38.4974365118594         24.65754085063596        0.0                     # C
94   1    2.406159239852763        24.65754085063596        0.0                     # C
95   1    4.812179563982425        24.65754085063596        0.0                     # C
96   1    7.218338803835188        24.65754085063596        0.0                     # C
97   1    9.62435912796485         24.65754085063596        0.0                     # C
98   1    12.030518367817614       24.65754085063596        0.0                     # C
99   1    14.436538691947275       24.65754085063596        0.0                     # C
100  1    16.842697931800036       24.65754085063596        0.0                     # C
101  1    19.2487182559297         24.65754085063596        0.0                     # C
102  1    20.45172841799453        25.352119466146835       0.0                     # C
103  1    22.857887657847293       25.352119466146835       0.0                     # C
104  1    25.26390798197695        25.352119466146835       0.0                     # C
105  1    27.670067221829715       25.352119466146835       0.0                     # C
106  1    30.07608754595938        25.352119466146835       0.0                     # C
107  1    32.48224678581214        25.352119466146835       0.0                     # C
108  1    34.8882671099418         25.352119466146835       0.0                     # C
109  1    37.29442634979457        25.352119466146835       0.0                     # C
110  1    1.2030101620648306       25.352119466146835       0.0                     # C
111  1    3.609169401917594        25.352119466146835       0.0                     # C
112  1    6.015189726047255        25.352119466146835       0.0                     # C
113  1    8.421348965900018        25.352119466146835       0.0                     # C
114  1    10.827369290029681       25.352119466146835       0.0                     # C
115  1    13.233528529882443       25.352119466146835       0.0                     # C
116  1    15.639548854012103       25.352119466146835       0.0                     # C
117  1    18.045708093864867       25.352119466146835       0.0                     # C
118  1    20.45172841799453        26.74127669716858        0.0                     # C
119  1    22.857887657847293       26.74127669716858        0.0                     # C
120  1    25.26390798197695        26.74127669716858        0.0                     # C
121  1    27.670067221829715       26.74127669716858        0.0                     # C
122  1    30.07608754595938        26.74127669716858        0.0                     # C
123  1    32.48224678581214        26.74127669716858        0.0                     # C
124  1    34.8882671099418         26.74127669716858        0.0                     # C
125  1    37.29442634979457        26.74127669716858        0.0                     # C
126  1    1.2030101620648306       26.74127669716858        0.0                     # C
127  1    3.609169401917594        26.74127669716858        0.0                     # C
128  1    6.015189726047255        26.74127669716858        0.0                     # C
129  1    8.421348965900018        26.74127669716858        0.0                     # C
130  1    10.827369290029681       26.74127669716858        0.0                     # C
131  1    13.233528529882443       26.74127669716858        0.0                     # C
132  1    15.639548854012103       26.74127669716858        0.0                     # C
133  1    18.045708093864867       26.74127669716858        0.0                     # C
134  1    19.2487182559297         27.435855312679447       0.0                     # C
135  1    21.65487749578246        27.435855312679447       0.0                     # C
136  1    24.06089781991212        27.435855312679447       0.0                     # C
137  1    26.467057059764887       27.435855312679447       0.0                     # C
138  1    28.87307738389455        27.435855312679447       0.0                     # C
139  1    31.279236623747313       27.435855312679447       0.0                     # C
140  1    33.68525694787697        27.435855312679447       0.0                     # C
141  1    36.091416187729735       27.435855312679447       0.0                     # C
142  1    38.4974365118594         27.435855312679447       0.0                     # C
143  1    2.406159239852763        27.435855312679447       0.0                     # C
144  1    4.812179563982425        27.435855312679447       0.0                     # C
145  1    7.218338803835188        27.435855312679447       0.0                     # C
146  1    9.62435912796485         27.435855312679447       0.0                     # C
147  1    12.030518367817614       27.435855312679447       0.0                     # C
148  1    14.436538691947275       27.435855312679447       0.0                     # C
149  1    16.842697931800036       27.435855312679447       0.0                     # C
150  1    21.65487749578246        28.825012543701195       0.0                     # C
151  1    24.06089781991212        28.825012543701195       0.0                     # C
152  1    26.467057059764887       28.825012543701195       0.0                     # C
153  1    28.87307738389455        28.825012543701195       0.0                     # C
154  1    31.279236623747313       28.825012543701195       0.0                     # C
155  1    33.68525694787697        28.825012543701195       0.0                     # C
156  1    36.091416187729735       28.825012543701195       0.0                     # C
157  1    38.4974365118594         28.825012543701195       0.0                     # C
158  1    2.406159239852763        28.825012543701195       0.0                     # C
159  1    4.812179563982425        28.825012543701195       0.0                     # C
160  1    7.218338803835188        28.825012543701195       0.0                     # C
161  1    9.62435912796485         28.825012543701195       0.0                     # C
162  1    12.030518367817614       28.825012543701195       0.0                     # C
163  1    14.436538691947275       28.825012543701195       0.0                     # C
164  1    16.842697931800036       28.825012543701195       0.0                     # C
165  1    19.2487182559297         28.825012543701195       0.0                     # C
166  1    20.45172841799453        29.519591159212066       0.0                     # C
167  1    22.857887657847293       29.519591159212066       0.0                     # C
168  1    25.26390798197695        29.519591159212066       0.0                     # C
169  1    27.670067221829715       29.519591159212066       0.0                     # C
170  1    30.07608754595938        29.519591159212066       0.0                     # C
171  1    32.48224678581214        29.519591159212066       0.0                     # C
172  1    34.8882671099418         29.519591159212066       0.0                     # C
173  1    37.29442634979457        29.519591159212066       0.0                     # C
174  1    1.2030101620648306       29.519591159212066       0.0                     # C
175  1    3.609169401917594        29.519591159212066       0.0                     # C
176  1    6.015189726047255        29.519591159212066       0.0                     # C
177  1    8.421348965900018        29.519591159212066       0.0                     # C
178  1    10.827369290029681       29.519591159212066       0.0                     # C
179  1    13.233528529882443       29.519591159212066       0.0                     # C
180  1    15.639548854012103       29.519591159212066       0.0                     # C
181  1    18.045708093864867       29.519591159212066       0.0                     # C
182  1    20.45172841799453        30.90874839023381        0.0                     # C
183  1    22.857887657847293       30.90874839023381        0.0                     # C
184  1    25.26390798197695        30.90874839023381        0.0                     # C
185  1    27.670067221829715       30.90874839023381        0.0                     # C
186  1    30.07608754595938        30.90874839023381        0.0                     # C
187  1    32.48224678581214        30.90874839023381        0.0                     # C
188  1    34.8882671099418         30.90874839023381        0.0                     # C
189  1    37.29442634979457        30.90874839023381        0.0                     # C
190  1    1.2030101620648306       30.90874839023381        0.0                     # C
191  1    3.609169401917594        30.90874839023381        0.0                     # C
192  1    6.015189726047255        30.90874839023381        0.0                     # C
193  1    8.421348965900018        30.90874839023381        0.0                     # C
194  1    10.827369290029681       30.90874839023381        0.0                     # C
195  1    13.233528529882443       30.90874839023381        0.0                     # C
196  1    15.639548854012103       30.90874839023381        0.0                     # C
197  1    18.045708093864867       30.90874839023381        0.0                     # C
198  1    19.2487182559297         31.603327005744685       0.0                     # C
199  1    21.65487749578246        31.603327005744685       0.0                     # C
200  1    24.06089781991212        31.603327005744685       0.0                     # C
201  1    26.467057059764887       31.603327005744685       0.0                     # C
202  1    28.87307738389455        31.603327005744685       0.0                     # C
203  1    31.279236623747313       31.603327005744685       0.0                     # C
204  1    33.68525694787697        31.603327005744685       0.0                     # C
205  1    36.091416187729735       31.603327005744685       0.0                     # C
206  1    38.4974365118594         31.603327005744685       0.0                     # C
207  1    2.406159239852763        31.603327005744685       0.0                     # C
208  1    4.812179563982425        31.603327005744685       0.0                     # C
209  1    7.218338803835188        31.603327005744685       0.0                     # C
210  1    9.62435912796485         31.603327005744685       0.0                     # C
211  1    12.030518367817614       31.603327005744685       0.0                     # C
212  1    14.436538691947275       31.603327005744685       0.0                     # C
213  1    16.842697931800036       31.603327005744685       0.0                     # C
214  1    21.65487749578246        32.99248423676643        0.0                     # C
215  1    24.06089781991212        32.99248423676643        0.0                     # C
216  1    26.467057059764887       32.99248423676643        0.0                     # C
217  1    28.87307738389455        32.99248423676643        0.0                     # C
218  1    31.279236623747313       32.99248423676643        0.0                     # C
219  1    33.68525694787697        32.99248423676643        0.0                     # C
220  1    36.091416187729735       32.99248423676643        0.0                     # C
221  1    38.4974365118594         32.99248423676643        0.0                     # C
222  1    2.406159239852763        32.99248423676643        0.0                     # C
223  1    4.812179563982425        32.99248423676643        0.0                     # C
224  1    7.218338803835188        32.99248423676643        0.0                     # C
225  1    9.62435912796485         32.99248423676643        0.0                     # C
226  1    12.030518367817614       32.99248423676643        0.0                     # C
227  1    14.436538691947275       32.99248423676643        0.0                     # C
228  1    16.842697931800036       32.99248423676643        0.0                     # C
229  1    19.2487182559297         32.99248423676643        0.0                     # C
230  1    20.45172841799453        0.3472893077554361       0.0                     # C
231  1    22.857887657847293       0.3472893077554361       0.0                     # C
232  1    25.26390798197695        0.3472893077554361       0.0                     # C
233  1    27.670067221829715       0.3472893077554361       0.0                     # C
234  1    30.07608754595938        0.3472893077554361       0.0                     # C
235  1    32.48224678581214        0.3472893077554361       0.0                     # C
236  1    34.8882671099418         0.3472893077554361       0.0                     # C
237  1    37.29442634979457        0.3472893077554361       0.0                     # C
238  1    1.2030101620648306       0.3472893077554361       0.0                     # C
239  1    3.609169401917594        0.3472893077554361       0.0                     # C
240  1    6.015189726047255        0.3472893077554361       0.0                     # C
241  1    8.421348965900018        0.3472893077554361       0.0                     # C
242  1    10.827369290029681       0.3472893077554361       0.0                     # C
243  1    13.233528529882443       0.3472893077554361       0.0                     # C
244  1    15.639548854012103       0.3472893077554361       0.0                     # C
245  1    18.045708093864867       0.3472893077554361       0.0                     # C
246  1    20.45172841799453        1.7364465387771806       0.0                     # C
247  1    22.857887657847293       1.7364465387771806       0.0                     # C
248  1    25.26390798197695        1.7364465387771806       0.0                     # C
249  1    27.670067221829715       1.7364465387771806       0.0                     # C
250  1    30.07608754595938        1.7364465387771806       0.0                     # C
251  1    32.48224678581214        1.7364465387771806       0.0                     # C
252  1    34.8882671099418         1.7364465387771806       0.0                     # C
253  1    37.29442634979457        1.7364465387771806       0.0                     # C
254  1    1.2030101620648306       1.7364465387771806       0.0                     # C
255  1    3.609169401917594        1.7364465387771806       0.0                     # C
256  1    6.015189726047255        1.7364465387771806       0.0                     # C
257  1    8.421348965900018        1.7364465387771806       0.0                     # C
258  1    10.827369290029681       1.7364465387771806       0.0                     # C
259  1    13.233528529882443       1.7364465387771806       0.0                     # C
260  1    15.639548854012103       1.7364465387771806       0.0                     # C
261  1    18.045708093864867       1.7364465387771806       0.0                     # C
262  1    19.2487182559297         2.4310251542880525       0.0                     # C
263  1    21.65487749578246        2.4310251542880525       0.0                     # C
264  1    24.06089781991212        2.4310251542880525       0.0                     # C
265  1    26.467057059764887       2.4310251542880525       0.0                     # C
266  1    28.87307738389455        2.4310251542880525       0.0                     # C
267  1    31.279236623747313       2.4310251542880525       0.0                     # C
268  1    33.68525694787697        2.4310251542880525       0.0                     # C
269  1    36.091416187729735       2.4310251542880525       0.0                     # C
270  1    38.4974365118594         2.4310251542880525       0.0                     # C
271  1    2.406159239852763        2.4310251542880525       0.0                     # C
272  1    4.812179563982425        2.4310251542880525       0.0                     # C
273  1    7.218338803835188        2.4310251542880525       0.0                     # C
274  1    9.62435912796485         2.4310251542880525       0.0                     # C
275  1    12.030518367817614       2.4310251542880525       0.0                     # C
276  1    14.436538691947275       2.4310251542880525       0.0                     # C
277  1    16.842697931800036       2.4310251542880525       0.0                     # C
278  1    21.65487749578246        3.820182385309797        0.0                     # C
279  1    24.06089781991212        3.820182385309797        0.0                     # C
280  1    26.467057059764887       3.820182385309797        0.0                     # C
281  1    28.87307738389455        3.820182385309797        0.0                     # C
282  1    31.279236623747313       3.820182385309797        0.0                     # C
283  1    33.68525694787697        3.820182385309797        0.0                     # C
284  1    36.091416187729735       3.820182385309797        0.0                     # C
285  1    38.4974365118594         3.820182385309797        0.0                     # C
286  1    2.406159239852763        3.820182385309797        0.0                     # C
287  1    4.812179563982425        3.820182385309797        0.0                     # C
288  1    7.218338803835188        3.820182385309797        0.0                     # C
289  1    9.62435912796485         3.820182385309797        0.0                     # C
290  1    12.030518367817614       3.820182385309797        0.0                     # C
291  1    14.436538691947275       3.820182385309797        0.0                     # C
292  1    16.842697931800036       3.820182385309797        0.0                     # C
293  1    19.2487182559297         3.820182385309797        0.0                     # C
294  1    20.45172841799453        4.514761000820669        0.0                     # C
295  1    22.857887657847293       4.514761000820669        0.0                     # C
296  1    25.26390798197695        4.514761000820669        0.0                     # C
297  1    27.670067221829715       4.514761000820669        0.0                     # C
298  1    30.07608754595938        4.514761000820669        0.0                     # C
299  1    32.48224678581214        4.514761000820669        0.0                     # C
300  1    34.8882671099418         4.514761000820669        0.0                     # C
301  1    37.29442634979457        4.514761000820669        0.0                     # C
302  1    1.2030101620648306       4.514761000820669        0.0                     # C
303  1    3.609169401917594        4.514761000820669        0.0                     # C
304  1    6.015189726047255        4.514761000820669        0.0                     # C
305  1    8.421348965900018        4.514761000820669        0.0                     # C
306  1    10.827369290029681       4.514761000820669        0.0                     # C
307  1    13.233528529882443       4.514761000820669        0.0                     # C
308  1    15.639548854012103       4.514761000820669        0.0                     # C
309  1    18.045708093864867       4.514761000820669        0.0                     # C
310  1    20.45172841799453        5.903918231842413        0.0                     # C
311  1    22.857887657847293       5.903918231842413        0.0                     # C
312  1    25.26390798197695        5.903918231842413        0.0                     # C
313  1    27.670067221829715       5.903918231842413        0.0                     # C
314  1    30.07608754595938        5.903918231842413        0.0                     # C
315  1    32.48224678581214        5.903918231842413        0.0                     # C
316  1    34.8882671099418         5.903918231842413        0.0                     # C
317  1    37.29442634979457        5.903918231842413        0.0                     # C
318  1    1.2030101620648306       5.903918231842413        0.0                     # C
319  1    3.609169401917594        5.903918231842413        0.0                     # C
320  1    6.015189726047255        5.903918231842413        0.0                     # C
321  1    8.421348965900018        5.903918231842413        0.0                     # C
322  1    10.827369290029681       5.903918231842413        0.0                     # C
323  1    13.233528529882443       5.903918231842413        0.0                     # C
324  1    15.639548854012103       5.903918231842413        0.0                     # C
325  1    18.045708093864867       5.903918231842413        0.0                     # C
326  1    19.2487182559297         6.598496847353286        0.0                     # C
327  1    21.65487749578246        6.598496847353286        0.0                     # C
328  1    24.06089781991212        6.598496847353286        0.0                     # C
329  1    26.467057059764887       6.598496847353286        0.0                     # C
330  1    28.87307738389455        6.598496847353286        0.0                     # C
331  1    31.279236623747313       6.598496847353286        0.0                     # C
332  1    33.68525694787697        6.598496847353286        0.0                     # C
333  1    36.091416187729735       6.598496847353286        0.0                     # C
334  1    38.4974365118594         6.598496847353286        0.0                     # C
335  1    2.406159239852763        6.598496847353286        0.0                     # C
336  1    4.812179563982425        6.598496847353286        0.0                     # C
337  1    7.218338803835188        6.598496847353286        0.0                     # C
338  1    9.62435912796485         6.598496847353286        0.0                     # C