DATA FILE Produced from netmc results (cf David Morley)
2940 atoms
9800 bonds
0 angles
0 dihedrals
0 impropers
2 atom types
0 bond types
2 bond types
0 angle types
0 dihedral types
0 improper types
0.00000 155.43625224544314 xlo xhi
0.00000 134.61174273036212 ylo yhi
0.0000 200.0000 zlo zhi

# Pair Coeffs
#
# 1  O
# 2  Si

# Bond Coeffs
# 
# 1  O-O
# 2  Si-O
# 3  O-O rep
# 4  Si-Si rep

 Masses

1 28.10000 # O 
2 32.01000 # Si

 Atoms # molecular

1    1    2    102.00485246523878       74.31689963238743        5.0                      # Si
2    2    2    102.00485246523878       74.31689963238743        11.081138669036534       # Si
3    3    2    111.7198941145413        74.31689963238743        5.0                      # Si
4    4    2    111.7198941145413        74.31689963238743        11.081138669036534       # Si
5    5    2    121.43437488158244       74.31689963238743        5.0                      # Si
6    6    2    121.43437488158244       74.31689963238743        11.081138669036534       # Si
7    7    2    131.14941653088493       74.31689963238743        5.0                      # Si
8    8    2    131.14941653088493       74.31689963238743        11.081138669036534       # Si
9    9    2    140.8638972979261        74.31689963238743        5.0                      # Si
10   10   2    140.8638972979261        74.31689963238743        11.081138669036534       # Si
11   11   2    150.5789389472286        74.31689963238743        5.0                      # Si
12   12   2    150.5789389472286        74.31689963238743        11.081138669036534       # Si
13   13   2    4.857240383520567        74.31689963238743        5.0                      # Si
14   14   2    4.857240383520567        74.31689963238743        11.081138669036534       # Si
15   15   2    14.572282032823079       74.31689963238743        5.0                      # Si
16   16   2    14.572282032823079       74.31689963238743        11.081138669036534       # Si
17   17   2    24.28676279986421        74.31689963238743        5.0                      # Si
18   18   2    24.28676279986421        74.31689963238743        11.081138669036534       # Si
19   19   2    34.00180444916672        74.31689963238743        5.0                      # Si
20   20   2    34.00180444916672        74.31689963238743        11.081138669036534       # Si
21   21   2    43.716285216207865       74.31689963238743        5.0                      # Si
22   22   2    43.716285216207865       74.31689963238743        11.081138669036534       # Si
23   23   2    53.43132686551037        74.31689963238743        5.0                      # Si
24   24   2    53.43132686551037        74.31689963238743        11.081138669036534       # Si
25   25   2    63.1458076325515         74.31689963238743        5.0                      # Si
26   26   2    63.1458076325515         74.31689963238743        11.081138669036534       # Si
27   27   2    97.14761208171822        77.12131093926999        5.0                      # Si
28   28   2    97.14761208171822        77.12131093926999        11.081138669036534       # Si
29   29   2    106.86265373102074       77.12131093926999        5.0                      # Si
30   30   2    106.86265373102074       77.12131093926999        11.081138669036534       # Si
31   31   2    116.57713449806188       77.12131093926999        5.0                      # Si
32   32   2    116.57713449806188       77.12131093926999        11.081138669036534       # Si
33   33   2    126.29217614736439       77.12131093926999        5.0                      # Si
34   34   2    126.29217614736439       77.12131093926999        11.081138669036534       # Si
35   35   2    136.00665691440554       77.12131093926999        5.0                      # Si
36   36   2    136.00665691440554       77.12131093926999        11.081138669036534       # Si
37   37   2    145.72169856370803       77.12131093926999        5.0                      # Si
38   38   2    145.72169856370803       77.12131093926999        11.081138669036534       # Si
39   39   2    155.43617933074916       77.12131093926999        5.0                      # Si
40   40   2    155.43617933074916       77.12131093926999        11.081138669036534       # Si
41   41   2    9.71504164930251         77.12131093926999        5.0                      # Si
42   42   2    9.71504164930251         77.12131093926999        11.081138669036534       # Si
43   43   2    19.429522416343644       77.12131093926999        5.0                      # Si
44   44   2    19.429522416343644       77.12131093926999        11.081138669036534       # Si
45   45   2    29.144564065646158       77.12131093926999        5.0                      # Si
46   46   2    29.144564065646158       77.12131093926999        11.081138669036534       # Si
47   47   2    38.85904483268729        77.12131093926999        5.0                      # Si
48   48   2    38.85904483268729        77.12131093926999        11.081138669036534       # Si
49   49   2    48.5740864819898         77.12131093926999        5.0                      # Si
50   50   2    48.5740864819898         77.12131093926999        11.081138669036534       # Si
51   51   2    58.28856724903094        77.12131093926999        5.0                      # Si
52   52   2    58.28856724903094        77.12131093926999        11.081138669036534       # Si
53   53   2    68.00360889833344        77.12131093926999        5.0                      # Si
54   54   2    68.00360889833344        77.12131093926999        11.081138669036534       # Si
55   55   2    97.14761208171822        82.73013355303507        5.0                      # Si
56   56   2    97.14761208171822        82.73013355303507        11.081138669036534       # Si
57   57   2    106.86265373102074       82.73013355303507        5.0                      # Si
58   58   2    106.86265373102074       82.73013355303507        11.081138669036534       # Si
59   59   2    116.57713449806188       82.73013355303507        5.0                      # Si
60   60   2    116.57713449806188       82.73013355303507        11.081138669036534       # Si
61   61   2    126.29217614736439       82.73013355303507        5.0                      # Si
62   62   2    126.29217614736439       82.73013355303507        11.081138669036534       # Si
63   63   2    136.00665691440554       82.73013355303507        5.0                      # Si
64   64   2    136.00665691440554       82.73013355303507        11.081138669036534       # Si
65   65   2    145.72169856370803       82.73013355303507        5.0                      # Si
66   66   2    145.72169856370803       82.73013355303507        11.081138669036534       # Si
67   67   2    155.43617933074916       82.73013355303507        5.0                      # Si
68   68   2    155.43617933074916       82.73013355303507        11.081138669036534       # Si
69   69   2    9.71504164930251         82.73013355303507        5.0                      # Si
70   70   2    9.71504164930251         82.73013355303507        11.081138669036534       # Si
71   71   2    19.429522416343644       82.73013355303507        5.0                      # Si
72   72   2    19.429522416343644       82.73013355303507        11.081138669036534       # Si
73   73   2    29.144564065646158       82.73013355303507        5.0                      # Si
74   74   2    29.144564065646158       82.73013355303507        11.081138669036534       # Si
75   75   2    38.85904483268729        82.73013355303507        5.0                      # Si
76   76   2    38.85904483268729        82.73013355303507        11.081138669036534       # Si
77   77   2    48.5740864819898         82.73013355303507        5.0                      # Si
78   78   2    48.5740864819898         82.73013355303507        11.081138669036534       # Si
79   79   2    58.28856724903094        82.73013355303507        5.0                      # Si
80   80   2    58.28856724903094        82.73013355303507        11.081138669036534       # Si
81   81   2    68.00360889833344        82.73013355303507        5.0                      # Si
82   82   2    68.00360889833344        82.73013355303507        11.081138669036534       # Si
83   83   2    102.00485246523878       85.53454485991762        5.0                      # Si
84   84   2    102.00485246523878       85.53454485991762        11.081138669036534       # Si
85   85   2    111.7198941145413        85.53454485991762        5.0                      # Si
86   86   2    111.7198941145413        85.53454485991762        11.081138669036534       # Si
87   87   2    121.43437488158244       85.53454485991762        5.0                      # Si
88   88   2    121.43437488158244       85.53454485991762        11.081138669036534       # Si
89   89   2    131.14941653088493       85.53454485991762        5.0                      # Si
90   90   2    131.14941653088493       85.53454485991762        11.081138669036534       # Si
91   91   2    140.8638972979261        85.53454485991762        5.0                      # Si
92   92   2    140.8638972979261        85.53454485991762        11.081138669036534       # Si
93   93   2    150.5789389472286        85.53454485991762        5.0                      # Si
94   94   2    150.5789389472286        85.53454485991762        11.081138669036534       # Si
95   95   2    4.857240383520567        85.53454485991762        5.0                      # Si
96   96   2    4.857240383520567        85.53454485991762        11.081138669036534       # Si
97   97   2    14.572282032823079       85.53454485991762        5.0                      # Si
98   98   2    14.572282032823079       85.53454485991762        11.081138669036534       # Si
99   99   2    24.28676279986421        85.53454485991762        5.0                      # Si
100  100  2    24.28676279986421        85.53454485991762        11.081138669036534       # Si
101  101  2    34.00180444916672        85.53454485991762        5.0                      # Si
102  102  2    34.00180444916672        85.53454485991762        11.081138669036534       # Si
103  103  2    43.716285216207865       85.53454485991762        5.0                      # Si
104  104  2    43.716285216207865       85.53454485991762        11.081138669036534       # Si
105  105  2    53.43132686551037        85.53454485991762        5.0                      # Si
106  106  2    53.43132686551037        85.53454485991762        11.081138669036534       # Si
107  107  2    63.1458076325515         85.53454485991762        5.0                      # Si
108  108  2    63.1458076325515         85.53454485991762        11.081138669036534       # Si
109  109  2    92.29037169819766        91.1433674736827         5.0                      # Si
110  110  2    92.29037169819766        91.1433674736827         11.081138669036534       # Si
111  111  2    102.00485246523878       91.1433674736827         5.0                      # Si
112  112  2    102.00485246523878       91.1433674736827         11.081138669036534       # Si
113  113  2    111.7198941145413        91.1433674736827         5.0                      # Si
114  114  2    111.7198941145413        91.1433674736827         11.081138669036534       # Si
115  115  2    121.43437488158244       91.1433674736827         5.0                      # Si
116  116  2    121.43437488158244       91.1433674736827         11.081138669036534       # Si
117  117  2    131.14941653088493       91.1433674736827         5.0                      # Si
118  118  2    131.14941653088493       91.1433674736827         11.081138669036534       # Si
119  119  2    140.8638972979261        91.1433674736827         5.0                      # Si
120  120  2    140.8638972979261        91.1433674736827         11.081138669036534       # Si
121  121  2    150.5789389472286        91.1433674736827         5.0                      # Si
122  122  2    150.5789389472286        91.1433674736827         11.081138669036534       # Si
123  123  2    4.857240383520567        91.1433674736827         5.0                      # Si
124  124  2    4.857240383520567        91.1433674736827         11.081138669036534       # Si
125  125  2    14.572282032823079       91.1433674736827         5.0                      # Si
126  126  2    14.572282032823079       91.1433674736827         11.081138669036534       # Si
127  127  2    24.28676279986421        91.1433674736827         5.0                      # Si
128  128  2    24.28676279986421        91.1433674736827         11.081138669036534       # Si
129  129  2    34.00180444916672        91.1433674736827         5.0                      # Si
130  130  2    34.00180444916672        91.1433674736827         11.081138669036534       # Si
131  131  2    43.716285216207865       91.1433674736827         5.0                      # Si
132  132  2    43.716285216207865       91.1433674736827         11.081138669036534       # Si
133  133  2    53.43132686551037        91.1433674736827         5.0                      # Si
134  134  2    53.43132686551037        91.1433674736827         11.081138669036534       # Si
135  135  2    63.1458076325515         91.1433674736827         5.0                      # Si
136  136  2    63.1458076325515         91.1433674736827         11.081138669036534       # Si
137  137  2    72.86084928185402        91.1433674736827         5.0                      # Si
138  138  2    72.86084928185402        91.1433674736827         11.081138669036534       # Si
139  139  2    77.71808966537458        93.94777878056524        5.0                      # Si
140  140  2    77.71808966537458        93.94777878056524        11.081138669036534       # Si
141  141  2    87.4331313146771         93.94777878056524        5.0                      # Si
142  142  2    87.4331313146771         93.94777878056524        11.081138669036534       # Si
143  143  2    97.14761208171822        93.94777878056524        5.0                      # Si
144  144  2    97.14761208171822        93.94777878056524        11.081138669036534       # Si
145  145  2    106.86265373102074       93.94777878056524        5.0                      # Si
146  146  2    106.86265373102074       93.94777878056524        11.081138669036534       # Si
147  147  2    116.57713449806188       93.94777878056524        5.0                      # Si
148  148  2    116.57713449806188       93.94777878056524        11.081138669036534       # Si
149  149  2    126.29217614736439       93.94777878056524        5.0                      # Si
150  150  2    126.29217614736439       93.94777878056524        11.081138669036534       # Si
151  151  2    136.00665691440554       93.94777878056524        5.0                      # Si
152  152  2    136.00665691440554       93.94777878056524        11.081138669036534       # Si
153  153  2    145.72169856370803       93.94777878056524        5.0                      # Si
154  154  2    145.72169856370803       93.94777878056524        11.081138669036534       # Si
155  155  2    155.43617933074916       93.94777878056524        5.0                      # Si
156  156  2    155.43617933074916       93.94777878056524        11.081138669036534       # Si
157  157  2    9.71504164930251         93.94777878056524        5.0                      # Si
158  158  2    9.71504164930251         93.94777878056524        11.081138669036534       # Si
159  159  2    19.429522416343644       93.94777878056524        5.0                      # Si
160  160  2    19.429522416343644       93.94777878056524        11.081138669036534       # Si
161  161  2    29.144564065646158       93.94777878056524        5.0                      # Si
162  162  2    29.144564065646158       93.94777878056524        11.081138669036534       # Si
163  163  2    38.85904483268729        93.94777878056524        5.0                      # Si
164  164  2    38.85904483268729        93.94777878056524        11.081138669036534       # Si
165  165  2    48.5740864819898         93.94777878056524        5.0                      # Si
166  166  2    48.5740864819898         93.94777878056524        11.081138669036534       # Si
167  167  2    58.28856724903094        93.94777878056524        5.0                      # Si
168  168  2    58.28856724903094        93.94777878056524        11.081138669036534       # Si
169  169  2    68.00360889833344        93.94777878056524        5.0                      # Si
170  170  2    68.00360889833344        93.94777878056524        11.081138669036534       # Si
171  171  2    87.4331313146771         99.55660139433033        5.0                      # Si
172  172  2    87.4331313146771         99.55660139433033        11.081138669036534       # Si
173  173  2    97.14761208171822        99.55660139433033        5.0                      # Si
174  174  2    97.14761208171822        99.55660139433033        11.081138669036534       # Si
175  175  2    106.86265373102074       99.55660139433033        5.0                      # Si
176  176  2    106.86265373102074       99.55660139433033        11.081138669036534       # Si
177  177  2    116.57713449806188       99.55660139433033        5.0                      # Si
178  178  2    116.57713449806188       99.55660139433033        11.081138669036534       # Si
179  179  2    126.29217614736439       99.55660139433033        5.0                      # Si
180  180  2    126.29217614736439       99.55660139433033        11.081138669036534       # Si
181  181  2    136.00665691440554       99.55660139433033        5.0                      # Si
182  182  2    136.00665691440554       99.55660139433033        11.081138669036534       # Si
183  183  2    145.72169856370803       99.55660139433033        5.0                      # Si
184  184  2    145.72169856370803       99.55660139433033        11.081138669036534       # Si
185  185  2    155.43617933074916       99.55660139433033        5.0                      # Si
186  186  2    155.43617933074916       99.55660139433033        11.081138669036534       # Si
187  187  2    9.71504164930251         99.55660139433033        5.0                      # Si
188  188  2    9.71504164930251         99.55660139433033        11.081138669036534       # Si
189  189  2    19.429522416343644       99.55660139433033        5.0                      # Si
190  190  2    19.429522416343644       99.55660139433033        11.081138669036534       # Si
191  191  2    29.144564065646158       99.55660139433033        5.0                      # Si
192  192  2    29.144564065646158       99.55660139433033        11.081138669036534       # Si
193  193  2    38.85904483268729        99.55660139433033        5.0                      # Si
194  194  2    38.85904483268729        99.55660139433033        11.081138669036534       # Si
195  195  2    48.5740864819898         99.55660139433033        5.0                      # Si
196  196  2    48.5740864819898         99.55660139433033        11.081138669036534       # Si
197  197  2    58.28856724903094        99.55660139433033        5.0                      # Si
198  198  2    58.28856724903094        99.55660139433033        11.081138669036534       # Si
199  199  2    68.00360889833344        99.55660139433033        5.0                      # Si
200  200  2    68.00360889833344        99.55660139433033        11.081138669036534       # Si
201  201  2    77.71808966537458        99.55660139433033        5.0                      # Si
202  202  2    77.71808966537458        99.55660139433033        11.081138669036534       # Si
203  203  2    82.57533004889515        102.36101270121289       5.0                      # Si
204  204  2    82.57533004889515        102.36101270121289       11.081138669036534       # Si
205  205  2    92.29037169819766        102.36101270121289       5.0                      # Si
206  206  2    92.29037169819766        102.36101270121289       11.081138669036534       # Si
207  207  2    102.00485246523878       102.36101270121289       5.0                      # Si
208  208  2    102.00485246523878       102.36101270121289       11.081138669036534       # Si
209  209  2    111.7198941145413        102.36101270121289       5.0                      # Si
210  210  2    111.7198941145413        102.36101270121289       11.081138669036534       # Si
211  211  2    121.43437488158244       102.36101270121289       5.0                      # Si
212  212  2    121.43437488158244       102.36101270121289       11.081138669036534       # Si
213  213  2    131.14941653088493       102.36101270121289       5.0                      # Si
214  214  2    131.14941653088493       102.36101270121289       11.081138669036534       # Si
215  215  2    140.8638972979261        102.36101270121289       5.0                      # Si
216  216  2    140.8638972979261        102.36101270121289       11.081138669036534       # Si
217  217  2    150.5789389472286        102.36101270121289       5.0                      # Si
218  218  2    150.5789389472286        102.36101270121289       11.081138669036534       # Si
219  219  2    4.857240383520567        102.36101270121289       5.0                      # Si
220  220  2    4.857240383520567        102.36101270121289       11.081138669036534       # Si
221  221  2    14.572282032823079       102.36101270121289       5.0                      # Si
222  222  2    14.572282032823079       102.36101270121289       11.081138669036534       # Si
223  223  2    24.28676279986421        102.36101270121289       5.0                      # Si
224  224  2    24.28676279986421        102.36101270121289       11.081138669036534       # Si
225  225  2    34.00180444916672        102.36101270121289       5.0                      # Si
226  226  2    34.00180444916672        102.36101270121289       11.081138669036534       # Si
227  227  2    43.716285216207865       102.36101270121289       5.0                      # Si
228  228  2    43.716285216207865       102.36101270121289       11.081138669036534       # Si
229  229  2    53.43132686551037        102.36101270121289       5.0                      # Si
230  230  2    53.43132686551037        102.36101270121289       11.081138669036534       # Si
231  231  2    63.1458076325515         102.36101270121289       5.0                      # Si
232  232  2    63.1458076325515         102.36101270121289       11.081138669036534       # Si
233  233  2    72.86084928185402        102.36101270121289       5.0                      # Si
234  234  2    72.86084928185402        102.36101270121289       11.081138669036534       # Si
235  235  2    82.57533004889515        107.96983531497797       5.0                      # Si
236  236  2    82.57533004889515        107.96983531497797       11.081138669036534       # Si
237  237  2    92.29037169819766        107.96983531497797       5.0                      # Si
238  238  2    92.29037169819766        107.96983531497797       11.081138669036534       # Si
239  239  2    102.00485246523878       107.96983531497797       5.0                      # Si
240  240  2    102.00485246523878       107.96983531497797       11.081138669036534       # Si
241  241  2    111.7198941145413        107.96983531497797       5.0                      # Si
242  242  2    111.7198941145413        107.96983531497797       11.081138669036534       # Si
243  243  2    121.43437488158244       107.96983531497797       5.0                      # Si
244  244  2    121.43437488158244       107.96983531497797       11.081138669036534       # Si
245  245  2    131.14941653088493       107.96983531497797       5.0                      # Si
246  246  2    131.14941653088493       107.96983531497797       11.081138669036534       # Si
247  247  2    140.8638972979261        107.96983531497797       5.0                      # Si
248  248  2    140.8638972979261        107.96983531497797       11.081138669036534       # Si
249  249  2    150.5789389472286        107.96983531497797       5.0                      # Si
250  250  2    150.5789389472286        107.96983531497797       11.081138669036534       # Si
251  251  2    4.857240383520567        107.96983531497797       5.0                      # Si
252  252  2    4.857240383520567        107.96983531497797       11.081138669036534       # Si
253  253  2    14.572282032823079       107.96983531497797       5.0                      # Si
254  254  2    14.572282032823079       107.96983531497797       11.081138669036534       # Si
255  255  2    24.28676279986421        107.96983531497797       5.0                      # Si
256  256  2    24.28676279986421        107.96983531497797       11.081138669036534       # Si
257  257  2    34.00180444916672        107.96983531497797       5.0                      # Si
258  258  2    34.00180444916672        107.96983531497797       11.081138669036534       # Si
259  259  2    43.716285216207865       107.96983531497797       5.0                      # Si
260  260  2    43.716285216207865       107.96983531497797       11.081138669036534       # Si
261  261  2    53.43132686551037        107.96983531497797       5.0                      # Si
262  262  2    53.43132686551037        107.96983531497797       11.081138669036534       # Si
263  263  2    63.1458076325515         107.96983531497797       5.0                      # Si
264  264  2    63.1458076325515         107.96983531497797       11.081138669036534       # Si
265  265  2    72.86084928185402        107.96983531497797       5.0                      # Si
266  266  2    72.86084928185402        107.96983531497797       11.081138669036534       # Si
267  267  2    77.71808966537458        110.77424662186051       5.0                      # Si
268  268  2    77.71808966537458        110.77424662186051       11.081138669036534       # Si
269  269  2    87.4331313146771         110.77424662186051       5.0                      # Si
270  270  2    87.4331313146771         110.77424662186051       11.081138669036534       # Si
271  271  2    97.14761208171822        110.77424662186051       5.0                      # Si
272  272  2    97.14761208171822        110.77424662186051       11.081138669036534       # Si
273  273  2    106.86265373102074       110.77424662186051       5.0                      # Si
274  274  2    106.86265373102074       110.77424662186051       11.081138669036534       # Si
275  275  2    116.57713449806188       110.77424662186051       5.0                      # Si
276  276  2    116.57713449806188       110.77424662186051       11.081138669036534       # Si
277  277  2    126.29217614736439       110.77424662186051       5.0                      # Si
278  278  2    126.29217614736439       110.77424662186051       11.081138669036534       # Si
279  279  2    136.00665691440554       110.77424662186051       5.0                      # Si
280  280  2    136.00665691440554       110.77424662186051       11.081138669036534       # Si
281  281  2    145.72169856370803       110.77424662186051       5.0                      # Si
282  282  2    145.72169856370803       110.77424662186051       11.081138669036534       # Si
283  283  2    155.43617933074916       110.77424662186051       5.0                      # Si
284  284  2    155.43617933074916       110.77424662186051       11.081138669036534       # Si
285  285  2    9.71504164930251         110.77424662186051       5.0                      # Si
286  286  2    9.71504164930251         110.77424662186051       11.081138669036534       # Si
287  287  2    19.429522416343644       110.77424662186051       5.0                      # Si
288  288  2    19.429522416343644       110.77424662186051       11.081138669036534       # Si
289  289  2    29.144564065646158       110.77424662186051       5.0                      # Si
290  290  2    29.144564065646158       110.77424662186051       11.081138669036534       # Si
291  291  2    38.85904483268729        110.77424662186051       5.0                      # Si
292  292  2    38.85904483268729        110.77424662186051       11.081138669036534       # Si
293  293  2    48.5740864819898         110.77424662186051       5.0                      # Si
294  294  2    48.5740864819898         110.77424662186051       11.081138669036534       # Si
295  295  2    58.28856724903094        110.77424662186051       5.0                      # Si
296  296  2    58.28856724903094        110.77424662186051       11.081138669036534       # Si
297  297  2    68.00360889833344        110.77424662186051       5.0                      # Si
298  298  2    68.00360889833344        110.77424662186051       11.081138669036534       # Si
299  299  2    87.4331313146771         116.38306923562561       5.0                      # Si
300  300  2    87.4331313146771         116.38306923562561       11.081138669036534       # Si
301  301  2    97.14761208171822        116.38306923562561       5.0                      # Si
302  302  2    97.14761208171822        116.38306923562561       11.081138669036534       # Si
303  303  2    106.86265373102074       116.38306923562561       5.0                      # Si
304  304  2    106.86265373102074       116.38306923562561       11.081138669036534       # Si
305  305  2    116.57713449806188       116.38306923562561       5.0                      # Si
306  306  2    116.57713449806188       116.38306923562561       11.081138669036534       # Si
307  307  2    126.29217614736439       116.38306923562561       5.0                      # Si
308  308  2    126.29217614736439       116.38306923562561       11.081138669036534       # Si
309  309  2    136.00665691440554       116.38306923562561       5.0                      # Si
310  310  2    136.00665691440554       116.38306923562561       11.081138669036534       # Si
311  311  2    145.72169856370803       116.38306923562561       5.0                      # Si