DATA FILE Produced from netmc results (cf David Morley)
675 atoms
1620 bonds
0 angles
0 dihedrals
0 impropers
2 atom types
2 bond types
0 angle types
0 dihedral types
0 improper types
0.00000 115.3814954851949 xlo xhi
0.00000 99.9233047304476 ylo yhi

# Pair Coeffs
#
# 1  O
# 2  Si

# Bond Coeffs
# 
# 1  O-O
# 2  Si-O
# 3  O-O rep
# 4  Si-Si rep

 Masses

1 28.10000 # O 
2 32.01000 # Si

 Atoms # molecular

1    1    2    81.72838119797453        56.90077074928266        5.0                      # Si
2    2    2    91.34377876039721        56.90077074928266        5.0                      # Si
3    3    2    100.95862119334916       56.90077074928266        5.0                      # Si
4    4    2    110.57401875577186       56.90077074928266        5.0                      # Si
5    5    2    4.807421216475978        56.90077074928266        5.0                      # Si
6    6    2    14.42281877889866        56.90077074928266        5.0                      # Si
7    7    2    24.03766121185061        56.90077074928266        5.0                      # Si
8    8    2    33.6530587742733         56.90077074928266        5.0                      # Si
9    9    2    43.26790120722526        56.90077074928266        5.0                      # Si
10   10   2    57.690719986123916       59.67641810290619        5.0                      # Si
11   11   2    67.3061175485466         59.67641810290619        5.0                      # Si
12   12   2    76.92095998149856        59.67641810290619        5.0                      # Si
13   13   2    86.53635754392123        59.67641810290619        5.0                      # Si
14   14   2    96.15119997687319        59.67641810290619        5.0                      # Si
15   15   2    105.76659753929587       59.67641810290619        5.0                      # Si
16   16   2    115.38143997224783       59.67641810290619        5.0                      # Si
17   17   2    9.61539756242268         59.67641810290619        5.0                      # Si
18   18   2    19.23023999537464        59.67641810290619        5.0                      # Si
19   19   2    28.84563755779732        59.67641810290619        5.0                      # Si
20   20   2    38.46047999074928        59.67641810290619        5.0                      # Si
21   21   2    48.075877553171956       59.67641810290619        5.0                      # Si
22   22   2    67.3061175485466         65.22771281015328        5.0                      # Si
23   23   2    76.92095998149856        65.22771281015328        5.0                      # Si
24   24   2    86.53635754392123        65.22771281015328        5.0                      # Si
25   25   2    96.15119997687319        65.22771281015328        5.0                      # Si
26   26   2    105.76659753929587       65.22771281015328        5.0                      # Si
27   27   2    115.38143997224783       65.22771281015328        5.0                      # Si
28   28   2    9.61539756242268         65.22771281015328        5.0                      # Si
29   29   2    19.23023999537464        65.22771281015328        5.0                      # Si
30   30   2    28.84563755779732        65.22771281015328        5.0                      # Si
31   31   2    38.46047999074928        65.22771281015328        5.0                      # Si
32   32   2    48.075877553171956       65.22771281015328        5.0                      # Si
33   33   2    57.690719986123916       65.22771281015328        5.0                      # Si
34   34   2    62.498141202599896       68.00336016377683        5.0                      # Si
35   35   2    72.11353876502257        68.00336016377683        5.0                      # Si
36   36   2    81.72838119797453        68.00336016377683        5.0                      # Si
37   37   2    91.34377876039721        68.00336016377683        5.0                      # Si
38   38   2    100.95862119334916       68.00336016377683        5.0                      # Si
39   39   2    110.57401875577186       68.00336016377683        5.0                      # Si
40   40   2    4.807421216475978        68.00336016377683        5.0                      # Si
41   41   2    14.42281877889866        68.00336016377683        5.0                      # Si
42   42   2    24.03766121185061        68.00336016377683        5.0                      # Si
43   43   2    33.6530587742733         68.00336016377683        5.0                      # Si
44   44   2    43.26790120722526        68.00336016377683        5.0                      # Si
45   45   2    52.883298769647936       68.00336016377683        5.0                      # Si
46   46   2    62.498141202599896       73.55465487102393        5.0                      # Si
47   47   2    72.11353876502257        73.55465487102393        5.0                      # Si
48   48   2    81.72838119797453        73.55465487102393        5.0                      # Si
49   49   2    91.34377876039721        73.55465487102393        5.0                      # Si
50   50   2    100.95862119334916       73.55465487102393        5.0                      # Si
51   51   2    110.57401875577186       73.55465487102393        5.0                      # Si
52   52   2    4.807421216475978        73.55465487102393        5.0                      # Si
53   53   2    14.42281877889866        73.55465487102393        5.0                      # Si
54   54   2    24.03766121185061        73.55465487102393        5.0                      # Si
55   55   2    33.6530587742733         73.55465487102393        5.0                      # Si
56   56   2    43.26790120722526        73.55465487102393        5.0                      # Si
57   57   2    52.883298769647936       73.55465487102393        5.0                      # Si
58   58   2    57.690719986123916       76.33030222464745        5.0                      # Si
59   59   2    67.3061175485466         76.33030222464745        5.0                      # Si
60   60   2    76.92095998149856        76.33030222464745        5.0                      # Si
61   61   2    86.53635754392123        76.33030222464745        5.0                      # Si
62   62   2    96.15119997687319        76.33030222464745        5.0                      # Si
63   63   2    105.76659753929587       76.33030222464745        5.0                      # Si
64   64   2    115.38143997224783       76.33030222464745        5.0                      # Si
65   65   2    9.61539756242268         76.33030222464745        5.0                      # Si
66   66   2    19.23023999537464        76.33030222464745        5.0                      # Si
67   67   2    28.84563755779732        76.33030222464745        5.0                      # Si
68   68   2    38.46047999074928        76.33030222464745        5.0                      # Si
69   69   2    48.075877553171956       76.33030222464745        5.0                      # Si
70   70   2    67.3061175485466         81.88159693189455        5.0                      # Si
71   71   2    76.92095998149856        81.88159693189455        5.0                      # Si
72   72   2    86.53635754392123        81.88159693189455        5.0                      # Si
73   73   2    96.15119997687319        81.88159693189455        5.0                      # Si
74   74   2    105.76659753929587       81.88159693189455        5.0                      # Si
75   75   2    115.38143997224783       81.88159693189455        5.0                      # Si
76   76   2    9.61539756242268         81.88159693189455        5.0                      # Si
77   77   2    19.23023999537464        81.88159693189455        5.0                      # Si
78   78   2    28.84563755779732        81.88159693189455        5.0                      # Si
79   79   2    38.46047999074928        81.88159693189455        5.0                      # Si
80   80   2    48.075877553171956       81.88159693189455        5.0                      # Si
81   81   2    57.690719986123916       81.88159693189455        5.0                      # Si
82   82   2    62.498141202599896       84.65724428551809        5.0                      # Si
83   83   2    72.11353876502257        84.65724428551809        5.0                      # Si
84   84   2    81.72838119797453        84.65724428551809        5.0                      # Si
85   85   2    91.34377876039721        84.65724428551809        5.0                      # Si
86   86   2    100.95862119334916       84.65724428551809        5.0                      # Si
87   87   2    110.57401875577186       84.65724428551809        5.0                      # Si
88   88   2    4.807421216475978        84.65724428551809        5.0                      # Si
89   89   2    14.42281877889866        84.65724428551809        5.0                      # Si
90   90   2    24.03766121185061        84.65724428551809        5.0                      # Si
91   91   2    33.6530587742733         84.65724428551809        5.0                      # Si
92   92   2    43.26790120722526        84.65724428551809        5.0                      # Si
93   93   2    52.883298769647936       84.65724428551809        5.0                      # Si
94   94   2    62.498141202599896       90.20853899276517        5.0                      # Si
95   95   2    72.11353876502257        90.20853899276517        5.0                      # Si
96   96   2    81.72838119797453        90.20853899276517        5.0                      # Si
97   97   2    91.34377876039721        90.20853899276517        5.0                      # Si
98   98   2    100.95862119334916       90.20853899276517        5.0                      # Si
99   99   2    110.57401875577186       90.20853899276517        5.0                      # Si
100  100  2    4.807421216475978        90.20853899276517        5.0                      # Si
101  101  2    14.42281877889866        90.20853899276517        5.0                      # Si
102  102  2    24.03766121185061        90.20853899276517        5.0                      # Si
103  103  2    33.6530587742733         90.20853899276517        5.0                      # Si
104  104  2    43.26790120722526        90.20853899276517        5.0                      # Si
105  105  2    52.883298769647936       90.20853899276517        5.0                      # Si
106  106  2    57.690719986123916       92.98418634638873        5.0                      # Si
107  107  2    67.3061175485466         92.98418634638873        5.0                      # Si
108  108  2    76.92095998149856        92.98418634638873        5.0                      # Si
109  109  2    86.53635754392123        92.98418634638873        5.0                      # Si
110  110  2    96.15119997687319        92.98418634638873        5.0                      # Si
111  111  2    105.76659753929587       92.98418634638873        5.0                      # Si
112  112  2    115.38143997224783       92.98418634638873        5.0                      # Si
113  113  2    9.61539756242268         92.98418634638873        5.0                      # Si
114  114  2    19.23023999537464        92.98418634638873        5.0                      # Si
115  115  2    28.84563755779732        92.98418634638873        5.0                      # Si
116  116  2    38.46047999074928        92.98418634638873        5.0                      # Si
117  117  2    48.075877553171956       92.98418634638873        5.0                      # Si
118  118  2    67.3061175485466         98.53548105363582        5.0                      # Si
119  119  2    76.92095998149856        98.53548105363582        5.0                      # Si
120  120  2    86.53635754392123        98.53548105363582        5.0                      # Si
121  121  2    96.15119997687319        98.53548105363582        5.0                      # Si
122  122  2    105.76659753929587       98.53548105363582        5.0                      # Si
123  123  2    115.38143997224783       98.53548105363582        5.0                      # Si
124  124  2    9.61539756242268         98.53548105363582        5.0                      # Si
125  125  2    19.23023999537464        98.53548105363582        5.0                      # Si
126  126  2    28.84563755779732        98.53548105363582        5.0                      # Si
127  127  2    38.46047999074928        98.53548105363582        5.0                      # Si
128  128  2    48.075877553171956       98.53548105363582        5.0                      # Si
129  129  2    57.690719986123916       98.53548105363582        5.0                      # Si
130  130  2    62.498141202599896       1.387823676811772        5.0                      # Si
131  131  2    72.11353876502257        1.387823676811772        5.0                      # Si
132  132  2    81.72838119797453        1.387823676811772        5.0                      # Si
133  133  2    91.34377876039721        1.387823676811772        5.0                      # Si
134  134  2    100.95862119334916       1.387823676811772        5.0                      # Si
135  135  2    110.57401875577186       1.387823676811772        5.0                      # Si
136  136  2    4.807421216475978        1.387823676811772        5.0                      # Si
137  137  2    14.42281877889866        1.387823676811772        5.0                      # Si
138  138  2    24.03766121185061        1.387823676811772        5.0                      # Si
139  139  2    33.6530587742733         1.387823676811772        5.0                      # Si
140  140  2    43.26790120722526        1.387823676811772        5.0                      # Si
141  141  2    52.883298769647936       1.387823676811772        5.0                      # Si
142  142  2    62.498141202599896       6.93911838405886         5.0                      # Si
143  143  2    72.11353876502257        6.93911838405886         5.0                      # Si
144  144  2    81.72838119797453        6.93911838405886         5.0                      # Si
145  145  2    91.34377876039721        6.93911838405886         5.0                      # Si
146  146  2    100.95862119334916       6.93911838405886         5.0                      # Si
147  147  2    110.57401875577186       6.93911838405886         5.0                      # Si
148  148  2    4.807421216475978        6.93911838405886         5.0                      # Si
149  149  2    14.42281877889866        6.93911838405886         5.0                      # Si
150  150  2    24.03766121185061        6.93911838405886         5.0                      # Si
151  151  2    33.6530587742733         6.93911838405886         5.0                      # Si
152  152  2    43.26790120722526        6.93911838405886         5.0                      # Si
153  153  2    52.883298769647936       6.93911838405886         5.0                      # Si
154  154  2    57.690719986123916       9.714765737682404        5.0                      # Si
155  155  2    67.3061175485466         9.714765737682404        5.0                      # Si
156  156  2    76.92095998149856        9.714765737682404        5.0                      # Si
157  157  2    86.53635754392123        9.714765737682404        5.0                      # Si
158  158  2    96.15119997687319        9.714765737682404        5.0                      # Si
159  159  2    105.76659753929587       9.714765737682404        5.0                      # Si
160  160  2    115.38143997224783       9.714765737682404        5.0                      # Si
161  161  2    9.61539756242268         9.714765737682404        5.0                      # Si
162  162  2    19.23023999537464        9.714765737682404        5.0                      # Si
163  163  2    28.84563755779732        9.714765737682404        5.0                      # Si
164  164  2    38.46047999074928        9.714765737682404        5.0                      # Si
165  165  2    48.075877553171956       9.714765737682404        5.0                      # Si
166  166  2    67.3061175485466         15.266060444929492       5.0                      # Si
167  167  2    76.92095998149856        15.266060444929492       5.0                      # Si
168  168  2    86.53635754392123        15.266060444929492       5.0                      # Si
169  169  2    96.15119997687319        15.266060444929492       5.0                      # Si
170  170  2    105.76659753929587       15.266060444929492       5.0                      # Si
171  171  2    115.38143997224783       15.266060444929492       5.0                      # Si
172  172  2    9.61539756242268         15.266060444929492       5.0                      # Si
173  173  2    19.23023999537464        15.266060444929492       5.0                      # Si
174  174  2    28.84563755779732        15.266060444929492       5.0                      # Si
175  175  2    38.46047999074928        15.266060444929492       5.0                      # Si
176  176  2    48.075877553171956       15.266060444929492       5.0                      # Si
177  177  2    57.690719986123916       15.266060444929492       5.0                      # Si
178  178  2    62.498141202599896       18.041707798553034       5.0                      # Si
179  179  2    72.11353876502257        18.041707798553034       5.0                      # Si
180  180  2    81.72838119797453        18.041707798553034       5.0                      # Si
181  181  2    91.34377876039721        18.041707798553034       5.0                      # Si
182  182  2    100.95862119334916       18.041707798553034       5.0                      # Si
183  183  2    110.57401875577186       18.041707798553034       5.0                      # Si
184  184  2    4.807421216475978        18.041707798553034       5.0                      # Si
185  185  2    14.42281877889866        18.041707798553034       5.0                      # Si
186  186  2    24.03766121185061        18.041707798553034       5.0                      # Si
187  187  2    33.6530587742733         18.041707798553034       5.0                      # Si
188  188  2    43.26790120722526        18.041707798553034       5.0                      # Si
189  189  2    52.883298769647936       18.041707798553034       5.0                      # Si
190  190  2    62.498141202599896       23.593002505800126       5.0                      # Si
191  191  2    72.11353876502257        23.593002505800126       5.0                      # Si
192  192  2    81.72838119797453        23.593002505800126       5.0                      # Si
193  193  2    91.34377876039721        23.593002505800126       5.0                      # Si
194  194  2    100.95862119334916       23.593002505800126       5.0                      # Si
195  195  2    110.57401875577186       23.593002505800126       5.0                      # Si
196  196  2    4.807421216475978        23.593002505800126       5.0                      # Si
197  197  2    14.42281877889866        23.593002505800126       5.0                      # Si
198  198  2    24.03766121185061        23.593002505800126       5.0                      # Si
199  199  2    33.6530587742733         23.593002505800126       5.0                      # Si
200  200  2    43.26790120722526        23.593002505800126       5.0                      # Si
201  201  2    52.883298769647936       23.593002505800126       5.0                      # Si
202  202  2    57.690719986123916       26.368649859423666       5.0                      # Si
203  203  2    67.3061175485466         26.368649859423666       5.0                      # Si
204  204  2    76.92095998149856        26.368649859423666       5.0                      # Si
205  205  2    86.53635754392123        26.368649859423666       5.0                      # Si
206  206  2    96.15119997687319        26.368649859423666       5.0                      # Si
207  207  2    105.76659753929587       26.368649859423666       5.0                      # Si
208  208  2    115.38143997224783       26.368649859423666       5.0                      # Si
209  209  2    9.61539756242268         26.368649859423666       5.0                      # Si
210  210  2    19.23023999537464        26.368649859423666       5.0                      # Si
211  211  2    28.84563755779732        26.368649859423666       5.0                      # Si
212  212  2    38.46047999074928        26.368649859423666       5.0                      # Si
213  213  2    48.075877553171956       26.368649859423666       5.0                      # Si
214  214  2    76.92095998149856        31.919944566670758       5.0                      # Si
215  215  2    86.53635754392123        31.919944566670758       5.0                      # Si
216  216  2    96.15119997687319        31.919944566670758       5.0                      # Si
217  217  2    105.76659753929587       31.919944566670758       5.0                      # Si
218  218  2    115.38143997224783       31.919944566670758       5.0                      # Si
219  219  2    9.61539756242268         31.919944566670758       5.0                      # Si
220  220  2    19.23023999537464        31.919944566670758       5.0                      # Si
221  221  2    28.84563755779732        31.919944566670758       5.0                      # Si
222  222  2    38.46047999074928        31.919944566670758       5.0                      # Si
223  223  2    48.075877553171956       31.919944566670758       5.0                      # Si
224  224  2    72.11353876502257        34.6955919202943         5.0                      # Si
225  225  2    81.72838119797453        34.6955919202943         5.0                      # Si
226  226  2    91.34377876039721        34.6955919202943         5.0                      # Si
227  227  2    100.95862119334916       34.6955919202943         5.0                      # Si
228  228  2    110.57401875577186       34.6955919202943         5.0                      # Si
229  229  2    4.807421216475978        34.6955919202943         5.0                      # Si
230  230  2    14.42281877889866        34.6955919202943         5.0                      # Si
231  231  2    24.03766121185061        34.6955919202943         5.0                      # Si
232  232  2    33.6530587742733         34.6955919202943         5.0                      # Si
233  233  2    43.26790120722526        34.6955919202943         5.0                      # Si
234  234  2    52.883298769647936       34.6955919202943         5.0                      # Si
235  235  2    81.72838119797453        40.24688662754139        5.0                      # Si
236  236  2    91.34377876039721        40.24688662754139        5.0                      # Si
237  237  2    100.95862119334916       40.24688662754139        5.0                      # Si
238  238  2    110.57401875577186       40.24688662754139        5.0                      # Si
239  239  2    4.807421216475978        40.24688662754139        5.0                      # Si
240  240  2    14.42281877889866        40.24688662754139        5.0                      # Si
241  241  2    24.03766121185061        40.24688662754139        5.0                      # Si
242  242  2    33.6530587742733         40.24688662754139        5.0                      # Si
243  243  2    43.26790120722526        40.24688662754139        5.0                      # Si
244  244  2    76.92095998149856        43.02253398116493        5.0                      # Si
245  245  2    86.53635754392123        43.02253398116493        5.0                      # Si
246  246  2    96.15119997687319        43.02253398116493        5.0                      # Si
247  247  2    105.76659753929587       43.02253398116493        5.0                      # Si
248  248  2    115.38143997224783       43.02253398116493        5.0                      # Si
249  249  2    9.61539756242268         43.02253398116493        5.0                      # Si
250  250  2    19.23023999537464        43.02253398116493        5.0                      # Si
251  251  2    28.84563755779732        43.02253398116493        5.0                      # Si
252  252  2    38.46047999074928        43.02253398116493        5.0                      # Si
253  253  2    48.075877553171956       43.02253398116493        5.0                      # Si
254  254  2    86.53635754392123        48.57382868841202        5.0                      # Si
255  255  2    96.15119997687319        48.57382868841202        5.0                      # Si
256  256  2    105.76659753929587       48.57382868841202        5.0                      # Si
257  257  2    115.38143997224783       48.57382868841202        5.0                      # Si
258  258  2    9.61539756242268         48.57382868841202        5.0                      # Si
259  259  2    19.23023999537464        48.57382868841202        5.0                      # Si
260  260  2    28.84563755779732        48.57382868841202        5.0                      # Si
261  261  2    38.46047999074928        48.57382868841202        5.0                      # Si
262  262  2    81.72838119797453        51.34947604203556        5.0                      # Si
263  263  2    91.34377876039721        51.34947604203556        5.0                      # Si
264  264  2    100.95862119334916       51.34947604203556        5.0                      # Si
265  265  2    110.57401875577186       51.34947604203556        5.0                      # Si
266  266  2    4.807421216475978        51.34947604203556        5.0                      # Si
267  267  2    14.42281877889866        51.34947604203556        5.0                      # Si
268  268  2    24.03766121185061        51.34947604203556        5.0                      # Si
269  269  2    33.6530587742733         51.34947604203556        5.0                      # Si
270  270  2    43.26790120722526        51.34947604203556        5.0                      # Si
271  271  1    79.32467058973654        58.28859442609442        5.0                      # O
272  272  1    83.88236937094788        58.72160712798664        5.0                      # O
273  273  1    82.22838119797453        54.12512339565911        5.0                      # O
274  274  1    88.94006815215923        58.28859442609442        5.0                      # O
275  275  1    93.4974893686352         58.72160712798664        5.0                      # O
276  276  1    91.84377876039721        54.12512339565911        5.0                      # O
277  277  1    98.55491058511117        58.28859442609442        5.0                      # O
278  278  1    103.11260936632252       58.72160712798664        5.0                      # O
279  279  1    101.45862119334916       54.12512339565911        5.0                      # O
280  280  1    108.17030814753386       58.28859442609442        5.0                      # O
281  281  1    112.72772936400985       58.72160712798664        5.0                      # O
282  282  1    111.07401875577186       54.12512339565911        5.0                      # O
283  283  1    2.403682851764456        58.28859442609442        5.0                      # O
284  284  1    6.961409389449329        58.72160712798664        5.0                      # O
285  285  1    5.307421216475978        54.12512339565911        5.0                      # O
286  286  1    12.01910817066067        58.28859442609442        5.0                      # O
287  287  1    16.57652938713665        58.72160712798664        5.0                      # O
288  288  1    14.92281877889866        54.12512339565911        5.0                      # O
289  289  1    21.633950603612625       58.28859442609442        5.0                      # O
290  290  1    26.191649384823968       58.72160712798664        5.0                      # O
291  291  1    24.53766121185061        54.12512339565911        5.0                      # O
292  292  1    31.24934816603531        58.28859442609442        5.0                      # O
293  293  1    35.80676938251129        58.72160712798664        5.0                      # O
294  294  1    34.1530587742733         54.12512339565911        5.0                      # O
295  295  1    40.864190598987264       58.28859442609442        5.0                      # O
296  296  1    45.42188938019861        58.72160712798664        5.0                      # O
297  297  1    43.76790120722526        54.12512339565911        5.0                      # O
298  298  1    58.190719986123916       62.45206545652974        5.0                      # O
299  299  1    52.883298769647936       59.67641810290619        5.0                      # O
300  300  1    62.49841876733525        59.67641810290619        5.0                      # O
301  301  1    67.8061175485466         62.45206545652974        5.0                      # O
302  302  1    72.11353876502258        59.67641810290619        5.0                      # O
303  303  1    77.42095998149856        62.45206545652974        5.0                      # O
304  304  1    87.03635754392123        62.45206545652974        5.0                      # O
305  305  1    96.65119997687319        62.45206545652974        5.0                      # O
306  306  1    106.26659753929587       62.45206545652974        5.0                      # O
307  307  1    0.4999444870529288       62.45206545652974        5.0                      # O
308  308  1    10.11539756242268        62.45206545652974        5.0                      # O
309  309  1    19.73023999537464        62.45206545652974        5.0                      # O
310  310  1    29.34563755779732        62.45206545652974        5.0                      # O
311  311  1    38.96047999074928        62.45206545652974        5.0                      # O