DATA FILE Produced from netmc results (cf David Morley)
8016 atoms
26720 bonds
0 angles
0 dihedrals
0 impropers
2 atom types
0 bond types
2 bond types
0 angle types
0 dihedral types
0 improper types
0.00000 257.792976006316 xlo xhi
0.00000 224.66403303066488 ylo yhi
0.0000 200.0000 zlo zhi

# Pair Coeffs
#
# 1  O
# 2  Si

# Bond Coeffs
# 
# 1  O-O
# 2  Si-O
# 3  O-O rep
# 4  Si-Si rep

 Masses

1 28.10000 # O 
2 32.01000 # Si

 Atoms # molecular

1    1    1    163.59916925140232       119.53278678640069       8.040569334518267        # O
2    2    1    173.5145652671003        119.53278678640069       8.040569334518267        # O
3    3    1    183.42938892221616       119.53278678640069       8.040569334518267        # O
4    4    1    193.34478499524766       119.53278678640069       8.040569334518267        # O
5    5    1    203.25960859303          119.53278678640069       8.040569334518267        # O
6    6    1    213.1750046660615        119.53278678640069       8.040569334518267        # O
7    7    1    223.08982826384386       119.53278678640069       8.040569334518267        # O
8    8    1    233.0052243368754        119.53278678640069       8.040569334518267        # O
9    9    1    242.92004793465773       119.53278678640069       8.040569334518267        # O
10   10   1    252.83544400768926       119.53278678640069       8.040569334518267        # O
11   11   1    4.957411827557939        119.53278678640069       8.040569334518267        # O
12   12   1    14.872807843255917       119.53278678640069       8.040569334518267        # O
13   13   1    24.78763149837179        119.53278678640069       8.040569334518267        # O
14   14   1    34.7030275714033         119.53278678640069       8.040569334518267        # O
15   15   1    44.61785116918565        119.53278678640069       8.040569334518267        # O
16   16   1    54.53324724221715        119.53278678640069       8.040569334518267        # O
17   17   1    64.44807083999952        119.53278678640069       8.040569334518267        # O
18   18   1    74.36346691303102        119.53278678640069       8.040569334518267        # O
19   19   1    84.27829051081336        119.53278678640069       8.040569334518267        # O
20   20   1    94.19368658384487        119.53278678640069       8.040569334518267        # O
21   21   1    104.10851018162722       119.53278678640069       8.040569334518267        # O
22   22   1    158.64175742384435       122.41309489482802       8.040569334518267        # O
23   23   1    168.55715349687588       122.41309489482802       8.040569334518267        # O
24   24   1    178.47197709465823       122.41309489482802       8.040569334518267        # O
25   25   1    188.38737316768973       122.41309489482802       8.040569334518267        # O
26   26   1    198.30219676547208       122.41309489482802       8.040569334518267        # O
27   27   1    208.21759283850358       122.41309489482802       8.040569334518267        # O
28   28   1    218.13241643628592       122.41309489482802       8.040569334518267        # O
29   29   1    228.04781250931745       122.41309489482802       8.040569334518267        # O
30   30   1    237.9626361070998        122.41309489482802       8.040569334518267        # O
31   31   1    247.8780321801313        122.41309489482802       8.040569334518267        # O
32   32   1    257.79285577791364       122.41309489482802       8.040569334518267        # O
33   33   1    9.915396073031502        122.41309489482802       8.040569334518267        # O
34   34   1    19.830219670813857       122.41309489482802       8.040569334518267        # O
35   35   1    29.745615743845356       122.41309489482802       8.040569334518267        # O
36   36   1    39.660439341627715       122.41309489482802       8.040569334518267        # O
37   37   1    49.57583541465922        122.41309489482802       8.040569334518267        # O
38   38   1    59.49065901244157        122.41309489482802       8.040569334518267        # O
39   39   1    69.40605508547307        122.41309489482802       8.040569334518267        # O
40   40   1    79.32087868325543        122.41309489482802       8.040569334518267        # O
41   41   1    89.23627475628693        122.41309489482802       8.040569334518267        # O
42   42   1    99.1510984114028         122.41309489482802       8.040569334518267        # O
43   43   1    109.06649442710079       122.41309489482802       8.040569334518267        # O
44   44   1    158.64175742384435       128.17371116901614       8.040569334518267        # O
45   45   1    168.55715349687588       128.17371116901614       8.040569334518267        # O
46   46   1    178.47197709465823       128.17371116901614       8.040569334518267        # O
47   47   1    188.38737316768973       128.17371116901614       8.040569334518267        # O
48   48   1    198.30219676547208       128.17371116901614       8.040569334518267        # O
49   49   1    208.21759283850358       128.17371116901614       8.040569334518267        # O
50   50   1    218.13241643628592       128.17371116901614       8.040569334518267        # O
51   51   1    228.04781250931745       128.17371116901614       8.040569334518267        # O
52   52   1    237.9626361070998        128.17371116901614       8.040569334518267        # O
53   53   1    247.8780321801313        128.17371116901614       8.040569334518267        # O
54   54   1    257.79285577791364       128.17371116901614       8.040569334518267        # O
55   55   1    9.915396073031502        128.17371116901614       8.040569334518267        # O
56   56   1    19.830219670813857       128.17371116901614       8.040569334518267        # O
57   57   1    29.745615743845356       128.17371116901614       8.040569334518267        # O
58   58   1    39.660439341627715       128.17371116901614       8.040569334518267        # O
59   59   1    49.57583541465922        128.17371116901614       8.040569334518267        # O
60   60   1    59.49065901244157        128.17371116901614       8.040569334518267        # O
61   61   1    69.40605508547307        128.17371116901614       8.040569334518267        # O
62   62   1    79.32087868325543        128.17371116901614       8.040569334518267        # O
63   63   1    89.23627475628693        128.17371116901614       8.040569334518267        # O
64   64   1    99.1510984114028         128.17371116901614       8.040569334518267        # O
65   65   1    109.06649442710079       128.17371116901614       8.040569334518267        # O
66   66   1    133.8541259254726        131.05401927744344       8.040569334518267        # O
67   67   1    143.76894952325492       131.05401927744344       8.040569334518267        # O
68   68   1    153.68434559628642       131.05401927744344       8.040569334518267        # O
69   69   1    163.59916925140232       131.05401927744344       8.040569334518267        # O
70   70   1    173.5145652671003        131.05401927744344       8.040569334518267        # O
71   71   1    183.42938892221616       131.05401927744344       8.040569334518267        # O
72   72   1    193.34478499524766       131.05401927744344       8.040569334518267        # O
73   73   1    203.25960859303          131.05401927744344       8.040569334518267        # O
74   74   1    213.1750046660615        131.05401927744344       8.040569334518267        # O
75   75   1    223.08982826384386       131.05401927744344       8.040569334518267        # O
76   76   1    233.0052243368754        131.05401927744344       8.040569334518267        # O
77   77   1    242.92004793465773       131.05401927744344       8.040569334518267        # O
78   78   1    252.83544400768926       131.05401927744344       8.040569334518267        # O
79   79   1    4.957411827557939        131.05401927744344       8.040569334518267        # O
80   80   1    14.872807843255917       131.05401927744344       8.040569334518267        # O
81   81   1    24.78763149837179        131.05401927744344       8.040569334518267        # O
82   82   1    34.7030275714033         131.05401927744344       8.040569334518267        # O
83   83   1    44.61785116918565        131.05401927744344       8.040569334518267        # O
84   84   1    54.53324724221715        131.05401927744344       8.040569334518267        # O
85   85   1    64.44807083999952        131.05401927744344       8.040569334518267        # O
86   86   1    74.36346691303102        131.05401927744344       8.040569334518267        # O
87   87   1    84.27829051081336        131.05401927744344       8.040569334518267        # O
88   88   1    94.19368658384487        131.05401927744344       8.040569334518267        # O
89   89   1    104.10851018162722       131.05401927744344       8.040569334518267        # O
90   90   1    114.02390625465873       131.05401927744344       8.040569334518267        # O
91   91   1    123.93872985244107       131.05401927744344       8.040569334518267        # O
92   92   1    133.8541259254726        136.81463549429805       8.040569334518267        # O
93   93   1    143.76894952325492       136.81463549429805       8.040569334518267        # O
94   94   1    153.68434559628642       136.81463549429805       8.040569334518267        # O
95   95   1    163.59916925140232       136.81463549429805       8.040569334518267        # O
96   96   1    173.5145652671003        136.81463549429805       8.040569334518267        # O
97   97   1    183.42938892221616       136.81463549429805       8.040569334518267        # O
98   98   1    193.34478499524766       136.81463549429805       8.040569334518267        # O
99   99   1    203.25960859303          136.81463549429805       8.040569334518267        # O
100  100  1    213.1750046660615        136.81463549429805       8.040569334518267        # O
101  101  1    223.08982826384386       136.81463549429805       8.040569334518267        # O
102  102  1    233.0052243368754        136.81463549429805       8.040569334518267        # O
103  103  1    242.92004793465773       136.81463549429805       8.040569334518267        # O
104  104  1    252.83544400768926       136.81463549429805       8.040569334518267        # O
105  105  1    4.957411827557939        136.81463549429805       8.040569334518267        # O
106  106  1    14.872807843255917       136.81463549429805       8.040569334518267        # O
107  107  1    24.78763149837179        136.81463549429805       8.040569334518267        # O
108  108  1    34.7030275714033         136.81463549429805       8.040569334518267        # O
109  109  1    44.61785116918565        136.81463549429805       8.040569334518267        # O
110  110  1    54.53324724221715        136.81463549429805       8.040569334518267        # O
111  111  1    64.44807083999952        136.81463549429805       8.040569334518267        # O
112  112  1    74.36346691303102        136.81463549429805       8.040569334518267        # O
113  113  1    84.27829051081336        136.81463549429805       8.040569334518267        # O
114  114  1    94.19368658384487        136.81463549429805       8.040569334518267        # O
115  115  1    104.10851018162722       136.81463549429805       8.040569334518267        # O
116  116  1    114.02390625465873       136.81463549429805       8.040569334518267        # O
117  117  1    123.93872985244107       136.81463549429805       8.040569334518267        # O
118  118  1    128.89671415524816       139.69494360272535       8.040569334518267        # O
119  119  1    138.81153775303054       139.69494360272535       8.040569334518267        # O
120  120  1    148.72693382606204       139.69494360272535       8.040569334518267        # O
121  121  1    158.64175742384435       139.69494360272535       8.040569334518267        # O
122  122  1    168.55715349687588       139.69494360272535       8.040569334518267        # O
123  123  1    178.47197709465823       139.69494360272535       8.040569334518267        # O
124  124  1    188.38737316768973       139.69494360272535       8.040569334518267        # O
125  125  1    198.30219676547208       139.69494360272535       8.040569334518267        # O
126  126  1    208.21759283850358       139.69494360272535       8.040569334518267        # O
127  127  1    218.13241643628592       139.69494360272535       8.040569334518267        # O
128  128  1    228.04781250931745       139.69494360272535       8.040569334518267        # O
129  129  1    237.9626361070998        139.69494360272535       8.040569334518267        # O
130  130  1    247.8780321801313        139.69494360272535       8.040569334518267        # O
131  131  1    257.79285577791364       139.69494360272535       8.040569334518267        # O
132  132  1    9.915396073031502        139.69494360272535       8.040569334518267        # O
133  133  1    19.830219670813857       139.69494360272535       8.040569334518267        # O
134  134  1    29.745615743845356       139.69494360272535       8.040569334518267        # O
135  135  1    39.660439341627715       139.69494360272535       8.040569334518267        # O
136  136  1    49.57583541465922        139.69494360272535       8.040569334518267        # O
137  137  1    59.49065901244157        139.69494360272535       8.040569334518267        # O
138  138  1    69.40605508547307        139.69494360272535       8.040569334518267        # O
139  139  1    79.32087868325543        139.69494360272535       8.040569334518267        # O
140  140  1    89.23627475628693        139.69494360272535       8.040569334518267        # O
141  141  1    99.1510984114028         139.69494360272535       8.040569334518267        # O
142  142  1    109.06649442710079       139.69494360272535       8.040569334518267        # O
143  143  1    118.98131808221666       139.69494360272535       8.040569334518267        # O
144  144  1    138.81153775303054       145.4555598769135        8.040569334518267        # O
145  145  1    148.72693382606204       145.4555598769135        8.040569334518267        # O
146  146  1    158.64175742384435       145.4555598769135        8.040569334518267        # O
147  147  1    168.55715349687588       145.4555598769135        8.040569334518267        # O
148  148  1    178.47197709465823       145.4555598769135        8.040569334518267        # O
149  149  1    188.38737316768973       145.4555598769135        8.040569334518267        # O
150  150  1    198.30219676547208       145.4555598769135        8.040569334518267        # O
151  151  1    208.21759283850358       145.4555598769135        8.040569334518267        # O
152  152  1    218.13241643628592       145.4555598769135        8.040569334518267        # O
153  153  1    228.04781250931745       145.4555598769135        8.040569334518267        # O
154  154  1    237.9626361070998        145.4555598769135        8.040569334518267        # O
155  155  1    247.8780321801313        145.4555598769135        8.040569334518267        # O
156  156  1    257.79285577791364       145.4555598769135        8.040569334518267        # O
157  157  1    9.915396073031502        145.4555598769135        8.040569334518267        # O
158  158  1    19.830219670813857       145.4555598769135        8.040569334518267        # O
159  159  1    29.745615743845356       145.4555598769135        8.040569334518267        # O
160  160  1    39.660439341627715       145.4555598769135        8.040569334518267        # O
161  161  1    49.57583541465922        145.4555598769135        8.040569334518267        # O
162  162  1    59.49065901244157        145.4555598769135        8.040569334518267        # O
163  163  1    69.40605508547307        145.4555598769135        8.040569334518267        # O
164  164  1    79.32087868325543        145.4555598769135        8.040569334518267        # O
165  165  1    89.23627475628693        145.4555598769135        8.040569334518267        # O
166  166  1    99.1510984114028         145.4555598769135        8.040569334518267        # O
167  167  1    109.06649442710079       145.4555598769135        8.040569334518267        # O
168  168  1    118.98131808221666       145.4555598769135        8.040569334518267        # O
169  169  1    128.89671415524816       145.4555598769135        8.040569334518267        # O
170  170  1    133.8541259254726        148.33586798534077       8.040569334518267        # O
171  171  1    143.76894952325492       148.33586798534077       8.040569334518267        # O
172  172  1    153.68434559628642       148.33586798534077       8.040569334518267        # O
173  173  1    163.59916925140232       148.33586798534077       8.040569334518267        # O
174  174  1    173.5145652671003        148.33586798534077       8.040569334518267        # O
175  175  1    183.42938892221616       148.33586798534077       8.040569334518267        # O
176  176  1    193.34478499524766       148.33586798534077       8.040569334518267        # O
177  177  1    203.25960859303          148.33586798534077       8.040569334518267        # O
178  178  1    213.1750046660615        148.33586798534077       8.040569334518267        # O
179  179  1    223.08982826384386       148.33586798534077       8.040569334518267        # O
180  180  1    233.0052243368754        148.33586798534077       8.040569334518267        # O
181  181  1    242.92004793465773       148.33586798534077       8.040569334518267        # O
182  182  1    252.83544400768926       148.33586798534077       8.040569334518267        # O
183  183  1    4.957411827557939        148.33586798534077       8.040569334518267        # O
184  184  1    14.872807843255917       148.33586798534077       8.040569334518267        # O
185  185  1    24.78763149837179        148.33586798534077       8.040569334518267        # O
186  186  1    34.7030275714033         148.33586798534077       8.040569334518267        # O
187  187  1    44.61785116918565        148.33586798534077       8.040569334518267        # O
188  188  1    54.53324724221715        148.33586798534077       8.040569334518267        # O
189  189  1    64.44807083999952        148.33586798534077       8.040569334518267        # O
190  190  1    74.36346691303102        148.33586798534077       8.040569334518267        # O
191  191  1    84.27829051081336        148.33586798534077       8.040569334518267        # O
192  192  1    94.19368658384487        148.33586798534077       8.040569334518267        # O
193  193  1    104.10851018162722       148.33586798534077       8.040569334518267        # O
194  194  1    114.02390625465873       148.33586798534077       8.040569334518267        # O
195  195  1    123.93872985244107       148.33586798534077       8.040569334518267        # O
196  196  1    133.8541259254726        154.0964842021954        8.040569334518267        # O
197  197  1    143.76894952325492       154.0964842021954        8.040569334518267        # O
198  198  1    153.68434559628642       154.0964842021954        8.040569334518267        # O
199  199  1    163.59916925140232       154.0964842021954        8.040569334518267        # O
200  200  1    173.5145652671003        154.0964842021954        8.040569334518267        # O
201  201  1    183.42938892221616       154.0964842021954        8.040569334518267        # O
202  202  1    193.34478499524766       154.0964842021954        8.040569334518267        # O
203  203  1    203.25960859303          154.0964842021954        8.040569334518267        # O
204  204  1    213.1750046660615        154.0964842021954        8.040569334518267        # O
205  205  1    223.08982826384386       154.0964842021954        8.040569334518267        # O
206  206  1    233.0052243368754        154.0964842021954        8.040569334518267        # O
207  207  1    242.92004793465773       154.0964842021954        8.040569334518267        # O
208  208  1    252.83544400768926       154.0964842021954        8.040569334518267        # O
209  209  1    4.957411827557939        154.0964842021954        8.040569334518267        # O
210  210  1    14.872807843255917       154.0964842021954        8.040569334518267        # O
211  211  1    24.78763149837179        154.0964842021954        8.040569334518267        # O
212  212  1    34.7030275714033         154.0964842021954        8.040569334518267        # O
213  213  1    44.61785116918565        154.0964842021954        8.040569334518267        # O
214  214  1    54.53324724221715        154.0964842021954        8.040569334518267        # O
215  215  1    64.44807083999952        154.0964842021954        8.040569334518267        # O
216  216  1    74.36346691303102        154.0964842021954        8.040569334518267        # O
217  217  1    84.27829051081336        154.0964842021954        8.040569334518267        # O
218  218  1    94.19368658384487        154.0964842021954        8.040569334518267        # O
219  219  1    104.10851018162722       154.0964842021954        8.040569334518267        # O
220  220  1    114.02390625465873       154.0964842021954        8.040569334518267        # O
221  221  1    123.93872985244107       154.0964842021954        8.040569334518267        # O
222  222  1    128.89671415524816       156.9767923106227        8.040569334518267        # O
223  223  1    138.81153775303054       156.9767923106227        8.040569334518267        # O
224  224  1    148.72693382606204       156.9767923106227        8.040569334518267        # O
225  225  1    158.64175742384435       156.9767923106227        8.040569334518267        # O
226  226  1    168.55715349687588       156.9767923106227        8.040569334518267        # O
227  227  1    178.47197709465823       156.9767923106227        8.040569334518267        # O
228  228  1    188.38737316768973       156.9767923106227        8.040569334518267        # O
229  229  1    198.30219676547208       156.9767923106227        8.040569334518267        # O
230  230  1    208.21759283850358       156.9767923106227        8.040569334518267        # O
231  231  1    218.13241643628592       156.9767923106227        8.040569334518267        # O
232  232  1    228.04781250931745       156.9767923106227        8.040569334518267        # O
233  233  1    237.9626361070998        156.9767923106227        8.040569334518267        # O
234  234  1    247.8780321801313        156.9767923106227        8.040569334518267        # O
235  235  1    257.79285577791364       156.9767923106227        8.040569334518267        # O
236  236  1    9.915396073031502        156.9767923106227        8.040569334518267        # O
237  237  1    19.830219670813857       156.9767923106227        8.040569334518267        # O
238  238  1    29.745615743845356       156.9767923106227        8.040569334518267        # O
239  239  1    39.660439341627715       156.9767923106227        8.040569334518267        # O
240  240  1    49.57583541465922        156.9767923106227        8.040569334518267        # O
241  241  1    59.49065901244157        156.9767923106227        8.040569334518267        # O
242  242  1    69.40605508547307        156.9767923106227        8.040569334518267        # O
243  243  1    79.32087868325543        156.9767923106227        8.040569334518267        # O
244  244  1    89.23627475628693        156.9767923106227        8.040569334518267        # O
245  245  1    99.1510984114028         156.9767923106227        8.040569334518267        # O
246  246  1    109.06649442710079       156.9767923106227        8.040569334518267        # O
247  247  1    118.98131808221666       156.9767923106227        8.040569334518267        # O
248  248  1    138.81153775303054       162.7374085274773        8.040569334518267        # O
249  249  1    148.72693382606204       162.7374085274773        8.040569334518267        # O
250  250  1    158.64175742384435       162.7374085274773        8.040569334518267        # O
251  251  1    168.55715349687588       162.7374085274773        8.040569334518267        # O
252  252  1    178.47197709465823       162.7374085274773        8.040569334518267        # O
253  253  1    188.38737316768973       162.7374085274773        8.040569334518267        # O
254  254  1    198.30219676547208       162.7374085274773        8.040569334518267        # O
255  255  1    208.21759283850358       162.7374085274773        8.040569334518267        # O
256  256  1    218.13241643628592       162.7374085274773        8.040569334518267        # O
257  257  1    228.04781250931745       162.7374085274773        8.040569334518267        # O
258  258  1    237.9626361070998        162.7374085274773        8.040569334518267        # O
259  259  1    247.8780321801313        162.7374085274773        8.040569334518267        # O
260  260  1    257.79285577791364       162.7374085274773        8.040569334518267        # O
261  261  1    9.915396073031502        162.7374085274773        8.040569334518267        # O
262  262  1    19.830219670813857       162.7374085274773        8.040569334518267        # O
263  263  1    29.745615743845356       162.7374085274773        8.040569334518267        # O
264  264  1    39.660439341627715       162.7374085274773        8.040569334518267        # O
265  265  1    49.57583541465922        162.7374085274773        8.040569334518267        # O
266  266  1    59.49065901244157        162.7374085274773        8.040569334518267        # O
267  267  1    69.40605508547307        162.7374085274773        8.040569334518267        # O
268  268  1    79.32087868325543        162.7374085274773        8.040569334518267        # O
269  269  1    89.23627475628693        162.7374085274773        8.040569334518267        # O
270  270  1    99.1510984114028         162.7374085274773        8.040569334518267        # O
271  271  1    109.06649442710079       162.7374085274773        8.040569334518267        # O
272  272  1    118.98131808221666       162.7374085274773        8.040569334518267        # O
273  273  1    128.89671415524816       162.7374085274773        8.040569334518267        # O
274  274  1    133.8541259254726        165.6177166359046        8.040569334518267        # O
275  275  1    143.76894952325492       165.6177166359046        8.040569334518267        # O
276  276  1    153.68434559628642       165.6177166359046        8.040569334518267        # O
277  277  1    163.59916925140232       165.6177166359046        8.040569334518267        # O
278  278  1    173.5145652671003        165.6177166359046        8.040569334518267        # O
279  279  1    183.42938892221616       165.6177166359046        8.040569334518267        # O
280  280  1    193.34478499524766       165.6177166359046        8.040569334518267        # O
281  281  1    203.25960859303          165.6177166359046        8.040569334518267        # O
282  282  1    213.1750046660615        165.6177166359046        8.040569334518267        # O
283  283  1    223.08982826384386       165.6177166359046        8.040569334518267        # O
284  284  1    233.0052243368754        165.6177166359046        8.040569334518267        # O
285  285  1    242.92004793465773       165.6177166359046        8.040569334518267        # O
286  286  1    252.83544400768926       165.6177166359046        8.040569334518267        # O
287  287  1    4.957411827557939        165.6177166359046        8.040569334518267        # O
288  288  1    14.872807843255917       165.6177166359046        8.040569334518267        # O
289  289  1    24.78763149837179        165.6177166359046        8.040569334518267        # O
290  290  1    34.7030275714033         165.6177166359046        8.040569334518267        # O
291  291  1    44.61785116918565        165.6177166359046        8.040569334518267        # O
292  292  1    54.53324724221715        165.6177166359046        8.040569334518267        # O
293  293  1    64.44807083999952        165.6177166359046        8.040569334518267        # O
294  294  1    74.36346691303102        165.6177166359046        8.040569334518267        # O
295  295  1    84.27829051081336        165.6177166359046        8.040569334518267        # O
296  296  1    94.19368658384487        165.6177166359046        8.040569334518267        # O
297  297  1    104.10851018162722       165.6177166359046        8.040569334518267        # O
298  298  1    114.02390625465873       165.6177166359046        8.040569334518267        # O
299  299  1    123.93872985244107       165.6177166359046        8.040569334518267        # O
300  300  1    133.8541259254726        171.37833291009272       8.040569334518267        # O
301  301  1    143.76894952325492       171.37833291009272       8.040569334518267        # O
302  302  1    153.68434559628642       171.37833291009272       8.040569334518267        # O
303  303  1    163.59916925140232       171.37833291009272       8.040569334518267        # O
304  304  1    173.5145652671003        171.37833291009272       8.040569334518267        # O
305  305  1    183.42938892221616       171.37833291009272       8.040569334518267        # O
306  306  1    193.34478499524766       171.37833291009272       8.040569334518267        # O
307  307  1    203.25960859303          171.37833291009272       8.040569334518267        # O
308  308  1    213.1750046660615        171.37833291009272       8.040569334518267        # O
309  309  1    223.08982826384386       171.37833291009272       8.040569334518267        # O
310  310  1    233.0052243368754        171.37833291009272       8.040569334518267        # O
311  311  1    242.92004793465773       171.37833291009272       8.040569334518267        # O
312  312  1    252.83544400768926       171.37833291009272       8.040569334518267        # O
313  313  1    4.957411827557939        171.37833291009272       8.040569334518267        # O
314  314  1    14.872807843255917       171.37833291009272       8.040569334518267        # O