DATA FILE Produced from netmc results (cf David Morley)
504 atoms
756 bonds
1512 angles
0 dihedrals
0 impropers
1 atom types
1 bond types
1 angle types
0 dihedral types
0 improper types
0.00000 27.495454248014187 xlo xhi
0.00000 23.811761799581316 ylo yhi

# Pair Coeffs
#
# 1  Si

# Bond Coeffs
# 
# 1  Si-Si

# Angle Coeffs
# 
# 1  Si-Si-Si

 Masses

1 28.085500 # Si

 Atoms # molecular

1    1    1    14.6069284132565         13.146076826852186       0.0                     # Si
2    2    1    16.325443105467116       13.146076826852186       0.0                     # Si
3    3    1    18.043858582003566       13.146076826852186       0.0                     # Si
4    4    1    19.762373274214184       13.146076826852186       0.0                     # Si
5    5    1    21.480788750750637       13.146076826852186       0.0                     # Si
6    6    1    23.199303442961252       13.146076826852186       0.0                     # Si
7    7    1    24.917718919497702       13.146076826852186       0.0                     # Si
8    8    1    26.63623361170832        13.146076826852186       0.0                     # Si
9    9    1    0.8592077382682258       13.146076826852186       0.0                     # Si
10   10   1    2.5777224304788424       13.146076826852186       0.0                     # Si
11   11   1    4.296137907015294        13.146076826852186       0.0                     # Si
12   12   1    6.014652599225911        13.146076826852186       0.0                     # Si
13   13   1    7.733068075762362        13.146076826852186       0.0                     # Si
14   14   1    9.45158276797298         13.146076826852186       0.0                     # Si
15   15   1    11.169998244509431       13.146076826852186       0.0                     # Si
16   16   1    12.888512936720046       13.146076826852186       0.0                     # Si
17   17   1    13.747720674988274       13.642155197676797       0.0                     # Si
18   18   1    15.46623536719889        13.642155197676797       0.0                     # Si
19   19   1    17.18465084373534        13.642155197676797       0.0                     # Si
20   20   1    18.90316553594596        13.642155197676797       0.0                     # Si
21   21   1    20.621581012482412       13.642155197676797       0.0                     # Si
22   22   1    22.340095704693027       13.642155197676797       0.0                     # Si
23   23   1    24.058511181229477       13.642155197676797       0.0                     # Si
24   24   1    25.777025873440092       13.642155197676797       0.0                     # Si
25   25   1    27.49544134997655        13.642155197676797       0.0                     # Si
26   26   1    1.7185146922106165       13.642155197676797       0.0                     # Si
27   27   1    3.4369301687470686       13.642155197676797       0.0                     # Si
28   28   1    5.155444860957685        13.642155197676797       0.0                     # Si
29   29   1    6.873860337494137        13.642155197676797       0.0                     # Si
30   30   1    8.592375029704753        13.642155197676797       0.0                     # Si
31   31   1    10.310790506241206       13.642155197676797       0.0                     # Si
32   32   1    12.029305198451821       13.642155197676797       0.0                     # Si
33   33   1    15.46623536719889        14.634311939326018       0.0                     # Si
34   34   1    17.18465084373534        14.634311939326018       0.0                     # Si
35   35   1    18.90316553594596        14.634311939326018       0.0                     # Si
36   36   1    20.621581012482412       14.634311939326018       0.0                     # Si
37   37   1    22.340095704693027       14.634311939326018       0.0                     # Si
38   38   1    24.058511181229477       14.634311939326018       0.0                     # Si
39   39   1    25.777025873440092       14.634311939326018       0.0                     # Si
40   40   1    27.49544134997655        14.634311939326018       0.0                     # Si
41   41   1    1.7185146922106165       14.634311939326018       0.0                     # Si
42   42   1    3.4369301687470686       14.634311939326018       0.0                     # Si
43   43   1    5.155444860957685        14.634311939326018       0.0                     # Si
44   44   1    6.873860337494137        14.634311939326018       0.0                     # Si
45   45   1    8.592375029704753        14.634311939326018       0.0                     # Si
46   46   1    10.310790506241206       14.634311939326018       0.0                     # Si
47   47   1    12.029305198451821       14.634311939326018       0.0                     # Si
48   48   1    13.747720674988274       14.634311939326018       0.0                     # Si
49   49   1    14.6069284132565         15.130390310150629       0.0                     # Si
50   50   1    16.325443105467116       15.130390310150629       0.0                     # Si
51   51   1    18.043858582003566       15.130390310150629       0.0                     # Si
52   52   1    19.762373274214184       15.130390310150629       0.0                     # Si
53   53   1    21.480788750750637       15.130390310150629       0.0                     # Si
54   54   1    23.199303442961252       15.130390310150629       0.0                     # Si
55   55   1    24.917718919497702       15.130390310150629       0.0                     # Si
56   56   1    26.63623361170832        15.130390310150629       0.0                     # Si
57   57   1    0.8592077382682258       15.130390310150629       0.0                     # Si
58   58   1    2.5777224304788424       15.130390310150629       0.0                     # Si
59   59   1    4.296137907015294        15.130390310150629       0.0                     # Si
60   60   1    6.014652599225911        15.130390310150629       0.0                     # Si
61   61   1    7.733068075762362        15.130390310150629       0.0                     # Si
62   62   1    9.45158276797298         15.130390310150629       0.0                     # Si
63   63   1    11.169998244509431       15.130390310150629       0.0                     # Si
64   64   1    12.888512936720046       15.130390310150629       0.0                     # Si
65   65   1    14.6069284132565         16.12254705179985        0.0                     # Si
66   66   1    16.325443105467116       16.12254705179985        0.0                     # Si
67   67   1    18.043858582003566       16.12254705179985        0.0                     # Si
68   68   1    19.762373274214184       16.12254705179985        0.0                     # Si
69   69   1    21.480788750750637       16.12254705179985        0.0                     # Si
70   70   1    23.199303442961252       16.12254705179985        0.0                     # Si
71   71   1    24.917718919497702       16.12254705179985        0.0                     # Si
72   72   1    26.63623361170832        16.12254705179985        0.0                     # Si
73   73   1    0.8592077382682258       16.12254705179985        0.0                     # Si
74   74   1    2.5777224304788424       16.12254705179985        0.0                     # Si
75   75   1    4.296137907015294        16.12254705179985        0.0                     # Si
76   76   1    6.014652599225911        16.12254705179985        0.0                     # Si
77   77   1    7.733068075762362        16.12254705179985        0.0                     # Si
78   78   1    9.45158276797298         16.12254705179985        0.0                     # Si
79   79   1    11.169998244509431       16.12254705179985        0.0                     # Si
80   80   1    12.888512936720046       16.12254705179985        0.0                     # Si
81   81   1    13.747720674988274       16.61862542262446        0.0                     # Si
82   82   1    15.46623536719889        16.61862542262446        0.0                     # Si
83   83   1    17.18465084373534        16.61862542262446        0.0                     # Si
84   84   1    18.90316553594596        16.61862542262446        0.0                     # Si
85   85   1    20.621581012482412       16.61862542262446        0.0                     # Si
86   86   1    22.340095704693027       16.61862542262446        0.0                     # Si
87   87   1    24.058511181229477       16.61862542262446        0.0                     # Si
88   88   1    25.777025873440092       16.61862542262446        0.0                     # Si
89   89   1    27.49544134997655        16.61862542262446        0.0                     # Si
90   90   1    1.7185146922106165       16.61862542262446        0.0                     # Si
91   91   1    3.4369301687470686       16.61862542262446        0.0                     # Si
92   92   1    5.155444860957685        16.61862542262446        0.0                     # Si
93   93   1    6.873860337494137        16.61862542262446        0.0                     # Si
94   94   1    8.592375029704753        16.61862542262446        0.0                     # Si
95   95   1    10.310790506241206       16.61862542262446        0.0                     # Si
96   96   1    12.029305198451821       16.61862542262446        0.0                     # Si
97   97   1    15.46623536719889        17.610782164273683       0.0                     # Si
98   98   1    17.18465084373534        17.610782164273683       0.0                     # Si
99   99   1    18.90316553594596        17.610782164273683       0.0                     # Si
100  100  1    20.621581012482412       17.610782164273683       0.0                     # Si
101  101  1    22.340095704693027       17.610782164273683       0.0                     # Si
102  102  1    24.058511181229477       17.610782164273683       0.0                     # Si
103  103  1    25.777025873440092       17.610782164273683       0.0                     # Si
104  104  1    27.49544134997655        17.610782164273683       0.0                     # Si
105  105  1    1.7185146922106165       17.610782164273683       0.0                     # Si
106  106  1    3.4369301687470686       17.610782164273683       0.0                     # Si
107  107  1    5.155444860957685        17.610782164273683       0.0                     # Si
108  108  1    6.873860337494137        17.610782164273683       0.0                     # Si
109  109  1    8.592375029704753        17.610782164273683       0.0                     # Si
110  110  1    10.310790506241206       17.610782164273683       0.0                     # Si
111  111  1    12.029305198451821       17.610782164273683       0.0                     # Si
112  112  1    13.747720674988274       17.610782164273683       0.0                     # Si
113  113  1    14.6069284132565         18.106860535098292       0.0                     # Si
114  114  1    16.325443105467116       18.106860535098292       0.0                     # Si
115  115  1    18.043858582003566       18.106860535098292       0.0                     # Si
116  116  1    19.762373274214184       18.106860535098292       0.0                     # Si
117  117  1    21.480788750750637       18.106860535098292       0.0                     # Si
118  118  1    23.199303442961252       18.106860535098292       0.0                     # Si
119  119  1    24.917718919497702       18.106860535098292       0.0                     # Si
120  120  1    26.63623361170832        18.106860535098292       0.0                     # Si
121  121  1    0.8592077382682258       18.106860535098292       0.0                     # Si
122  122  1    2.5777224304788424       18.106860535098292       0.0                     # Si
123  123  1    4.296137907015294        18.106860535098292       0.0                     # Si
124  124  1    6.014652599225911        18.106860535098292       0.0                     # Si
125  125  1    7.733068075762362        18.106860535098292       0.0                     # Si
126  126  1    9.45158276797298         18.106860535098292       0.0                     # Si
127  127  1    11.169998244509431       18.106860535098292       0.0                     # Si
128  128  1    12.888512936720046       18.106860535098292       0.0                     # Si
129  129  1    14.6069284132565         19.099017276747514       0.0                     # Si
130  130  1    16.325443105467116       19.099017276747514       0.0                     # Si
131  131  1    18.043858582003566       19.099017276747514       0.0                     # Si
132  132  1    19.762373274214184       19.099017276747514       0.0                     # Si
133  133  1    21.480788750750637       19.099017276747514       0.0                     # Si
134  134  1    23.199303442961252       19.099017276747514       0.0                     # Si
135  135  1    24.917718919497702       19.099017276747514       0.0                     # Si
136  136  1    26.63623361170832        19.099017276747514       0.0                     # Si
137  137  1    0.8592077382682258       19.099017276747514       0.0                     # Si
138  138  1    2.5777224304788424       19.099017276747514       0.0                     # Si
139  139  1    4.296137907015294        19.099017276747514       0.0                     # Si
140  140  1    6.014652599225911        19.099017276747514       0.0                     # Si
141  141  1    7.733068075762362        19.099017276747514       0.0                     # Si
142  142  1    9.45158276797298         19.099017276747514       0.0                     # Si
143  143  1    11.169998244509431       19.099017276747514       0.0                     # Si
144  144  1    12.888512936720046       19.099017276747514       0.0                     # Si
145  145  1    13.747720674988274       19.595095647572126       0.0                     # Si
146  146  1    15.46623536719889        19.595095647572126       0.0                     # Si
147  147  1    17.18465084373534        19.595095647572126       0.0                     # Si
148  148  1    18.90316553594596        19.595095647572126       0.0                     # Si
149  149  1    20.621581012482412       19.595095647572126       0.0                     # Si
150  150  1    22.340095704693027       19.595095647572126       0.0                     # Si
151  151  1    24.058511181229477       19.595095647572126       0.0                     # Si
152  152  1    25.777025873440092       19.595095647572126       0.0                     # Si
153  153  1    27.49544134997655        19.595095647572126       0.0                     # Si
154  154  1    1.7185146922106165       19.595095647572126       0.0                     # Si
155  155  1    3.4369301687470686       19.595095647572126       0.0                     # Si
156  156  1    5.155444860957685        19.595095647572126       0.0                     # Si
157  157  1    6.873860337494137        19.595095647572126       0.0                     # Si
158  158  1    8.592375029704753        19.595095647572126       0.0                     # Si
159  159  1    10.310790506241206       19.595095647572126       0.0                     # Si
160  160  1    12.029305198451821       19.595095647572126       0.0                     # Si
161  161  1    15.46623536719889        20.587252389221348       0.0                     # Si
162  162  1    17.18465084373534        20.587252389221348       0.0                     # Si
163  163  1    18.90316553594596        20.587252389221348       0.0                     # Si
164  164  1    20.621581012482412       20.587252389221348       0.0                     # Si
165  165  1    22.340095704693027       20.587252389221348       0.0                     # Si
166  166  1    24.058511181229477       20.587252389221348       0.0                     # Si
167  167  1    25.777025873440092       20.587252389221348       0.0                     # Si
168  168  1    27.49544134997655        20.587252389221348       0.0                     # Si
169  169  1    1.7185146922106165       20.587252389221348       0.0                     # Si
170  170  1    3.4369301687470686       20.587252389221348       0.0                     # Si
171  171  1    5.155444860957685        20.587252389221348       0.0                     # Si
172  172  1    6.873860337494137        20.587252389221348       0.0                     # Si
173  173  1    8.592375029704753        20.587252389221348       0.0                     # Si
174  174  1    10.310790506241206       20.587252389221348       0.0                     # Si
175  175  1    12.029305198451821       20.587252389221348       0.0                     # Si
176  176  1    13.747720674988274       20.587252389221348       0.0                     # Si
177  177  1    14.6069284132565         21.083330760045957       0.0                     # Si
178  178  1    16.325443105467116       21.083330760045957       0.0                     # Si
179  179  1    18.043858582003566       21.083330760045957       0.0                     # Si
180  180  1    19.762373274214184       21.083330760045957       0.0                     # Si
181  181  1    21.480788750750637       21.083330760045957       0.0                     # Si
182  182  1    23.199303442961252       21.083330760045957       0.0                     # Si
183  183  1    24.917718919497702       21.083330760045957       0.0                     # Si
184  184  1    26.63623361170832        21.083330760045957       0.0                     # Si
185  185  1    0.8592077382682258       21.083330760045957       0.0                     # Si
186  186  1    2.5777224304788424       21.083330760045957       0.0                     # Si
187  187  1    4.296137907015294        21.083330760045957       0.0                     # Si
188  188  1    6.014652599225911        21.083330760045957       0.0                     # Si
189  189  1    7.733068075762362        21.083330760045957       0.0                     # Si
190  190  1    9.45158276797298         21.083330760045957       0.0                     # Si
191  191  1    11.169998244509431       21.083330760045957       0.0                     # Si
192  192  1    12.888512936720046       21.083330760045957       0.0                     # Si
193  193  1    14.6069284132565         22.07548750169518        0.0                     # Si
194  194  1    16.325443105467116       22.07548750169518        0.0                     # Si
195  195  1    18.043858582003566       22.07548750169518        0.0                     # Si
196  196  1    19.762373274214184       22.07548750169518        0.0                     # Si
197  197  1    21.480788750750637       22.07548750169518        0.0                     # Si
198  198  1    23.199303442961252       22.07548750169518        0.0                     # Si
199  199  1    24.917718919497702       22.07548750169518        0.0                     # Si
200  200  1    26.63623361170832        22.07548750169518        0.0                     # Si
201  201  1    0.8592077382682258       22.07548750169518        0.0                     # Si
202  202  1    2.5777224304788424       22.07548750169518        0.0                     # Si
203  203  1    4.296137907015294        22.07548750169518        0.0                     # Si
204  204  1    6.014652599225911        22.07548750169518        0.0                     # Si
205  205  1    7.733068075762362        22.07548750169518        0.0                     # Si
206  206  1    9.45158276797298         22.07548750169518        0.0                     # Si
207  207  1    11.169998244509431       22.07548750169518        0.0                     # Si
208  208  1    12.888512936720046       22.07548750169518        0.0                     # Si
209  209  1    13.747720674988274       22.57156587251979        0.0                     # Si
210  210  1    15.46623536719889        22.57156587251979        0.0                     # Si
211  211  1    17.18465084373534        22.57156587251979        0.0                     # Si
212  212  1    18.90316553594596        22.57156587251979        0.0                     # Si
213  213  1    20.621581012482412       22.57156587251979        0.0                     # Si
214  214  1    22.340095704693027       22.57156587251979        0.0                     # Si
215  215  1    24.058511181229477       22.57156587251979        0.0                     # Si
216  216  1    25.777025873440092       22.57156587251979        0.0                     # Si
217  217  1    27.49544134997655        22.57156587251979        0.0                     # Si
218  218  1    1.7185146922106165       22.57156587251979        0.0                     # Si
219  219  1    3.4369301687470686       22.57156587251979        0.0                     # Si
220  220  1    5.155444860957685        22.57156587251979        0.0                     # Si
221  221  1    6.873860337494137        22.57156587251979        0.0                     # Si
222  222  1    8.592375029704753        22.57156587251979        0.0                     # Si
223  223  1    10.310790506241206       22.57156587251979        0.0                     # Si
224  224  1    12.029305198451821       22.57156587251979        0.0                     # Si
225  225  1    15.46623536719889        23.563722614169013       0.0                     # Si
226  226  1    17.18465084373534        23.563722614169013       0.0                     # Si
227  227  1    18.90316553594596        23.563722614169013       0.0                     # Si
228  228  1    20.621581012482412       23.563722614169013       0.0                     # Si
229  229  1    22.340095704693027       23.563722614169013       0.0                     # Si
230  230  1    24.058511181229477       23.563722614169013       0.0                     # Si
231  231  1    25.777025873440092       23.563722614169013       0.0                     # Si
232  232  1    27.49544134997655        23.563722614169013       0.0                     # Si
233  233  1    1.7185146922106165       23.563722614169013       0.0                     # Si
234  234  1    3.4369301687470686       23.563722614169013       0.0                     # Si
235  235  1    5.155444860957685        23.563722614169013       0.0                     # Si
236  236  1    6.873860337494137        23.563722614169013       0.0                     # Si
237  237  1    8.592375029704753        23.563722614169013       0.0                     # Si
238  238  1    10.310790506241206       23.563722614169013       0.0                     # Si
239  239  1    12.029305198451821       23.563722614169013       0.0                     # Si
240  240  1    13.747720674988274       23.563722614169013       0.0                     # Si
241  241  1    14.6069284132565         0.24803918541230538      0.0                     # Si
242  242  1    16.325443105467116       0.24803918541230538      0.0                     # Si
243  243  1    18.043858582003566       0.24803918541230538      0.0                     # Si
244  244  1    19.762373274214184       0.24803918541230538      0.0                     # Si
245  245  1    21.480788750750637       0.24803918541230538      0.0                     # Si
246  246  1    23.199303442961252       0.24803918541230538      0.0                     # Si
247  247  1    24.917718919497702       0.24803918541230538      0.0                     # Si
248  248  1    26.63623361170832        0.24803918541230538      0.0                     # Si
249  249  1    0.8592077382682258       0.24803918541230538      0.0                     # Si
250  250  1    2.5777224304788424       0.24803918541230538      0.0                     # Si
251  251  1    4.296137907015294        0.24803918541230538      0.0                     # Si
252  252  1    6.014652599225911        0.24803918541230538      0.0                     # Si
253  253  1    7.733068075762362        0.24803918541230538      0.0                     # Si
254  254  1    9.45158276797298         0.24803918541230538      0.0                     # Si
255  255  1    11.169998244509431       0.24803918541230538      0.0                     # Si
256  256  1    12.888512936720046       0.24803918541230538      0.0                     # Si
257  257  1    14.6069284132565         1.2401959270615268       0.0                     # Si
258  258  1    16.325443105467116       1.2401959270615268       0.0                     # Si
259  259  1    18.043858582003566       1.2401959270615268       0.0                     # Si
260  260  1    19.762373274214184       1.2401959270615268       0.0                     # Si
261  261  1    21.480788750750637       1.2401959270615268       0.0                     # Si
262  262  1    23.199303442961252       1.2401959270615268       0.0                     # Si
263  263  1    24.917718919497702       1.2401959270615268       0.0                     # Si
264  264  1    26.63623361170832        1.2401959270615268       0.0                     # Si
265  265  1    0.8592077382682258       1.2401959270615268       0.0                     # Si
266  266  1    2.5777224304788424       1.2401959270615268       0.0                     # Si
267  267  1    4.296137907015294        1.2401959270615268       0.0                     # Si
268  268  1    6.014652599225911        1.2401959270615268       0.0                     # Si
269  269  1    7.733068075762362        1.2401959270615268       0.0                     # Si
270  270  1    9.45158276797298         1.2401959270615268       0.0                     # Si
271  271  1    11.169998244509431       1.2401959270615268       0.0                     # Si
272  272  1    12.888512936720046       1.2401959270615268       0.0                     # Si
273  273  1    13.747720674988274       1.7362742978861376       0.0                     # Si
274  274  1    15.46623536719889        1.7362742978861376       0.0                     # Si
275  275  1    17.18465084373534        1.7362742978861376       0.0                     # Si
276  276  1    18.90316553594596        1.7362742978861376       0.0                     # Si
277  277  1    20.621581012482412       1.7362742978861376       0.0                     # Si
278  278  1    22.340095704693027       1.7362742978861376       0.0                     # Si
279  279  1    24.058511181229477       1.7362742978861376       0.0                     # Si
280  280  1    25.777025873440092       1.7362742978861376       0.0                     # Si
281  281  1    27.49544134997655        1.7362742978861376       0.0                     # Si
282  282  1    1.7185146922106165       1.7362742978861376       0.0                     # Si
283  283  1    3.4369301687470686       1.7362742978861376       0.0                     # Si
284  284  1    5.155444860957685        1.7362742978861376       0.0                     # Si
285  285  1    6.873860337494137        1.7362742978861376       0.0                     # Si
286  286  1    8.592375029704753        1.7362742978861376       0.0                     # Si
287  287  1    10.310790506241206       1.7362742978861376       0.0                     # Si
288  288  1    12.029305198451821       1.7362742978861376       0.0                     # Si
289  289  1    15.46623536719889        2.728431039535359        0.0                     # Si
290  290  1    17.18465084373534        2.728431039535359        0.0                     # Si
291  291  1    18.90316553594596        2.728431039535359        0.0                     # Si
292  292  1    20.621581012482412       2.728431039535359        0.0                     # Si
293  293  1    22.340095704693027       2.728431039535359        0.0                     # Si
294  294  1    24.058511181229477       2.728431039535359        0.0                     # Si
295  295  1    25.777025873440092       2.728431039535359        0.0                     # Si
296  296  1    27.49544134997655        2.728431039535359        0.0                     # Si
297  297  1    1.7185146922106165       2.728431039535359        0.0                     # Si
298  298  1    3.4369301687470686       2.728431039535359        0.0                     # Si
299  299  1    5.155444860957685        2.728431039535359        0.0                     # Si
300  300  1    6.873860337494137        2.728431039535359        0.0                     # Si
301  301  1    8.592375029704753        2.728431039535359        0.0                     # Si
302  302  1    10.310790506241206       2.728431039535359        0.0                     # Si
303  303  1    12.029305198451821       2.728431039535359        0.0                     # Si
304  304  1    13.747720674988274       2.728431039535359        0.0                     # Si
305  305  1    14.6069284132565         3.22450941035997         0.0                     # Si
306  306  1    16.325443105467116       3.22450941035997         0.0                     # Si
307  307  1    18.043858582003566       3.22450941035997         0.0                     # Si
308  308  1    19.762373274214184       3.22450941035997         0.0                     # Si
309  309  1    21.480788750750637       3.22450941035997         0.0                     # Si
310  310  1    23.199303442961252       3.22450941035997         0.0                     # Si
311  311  1    24.917718919497702       3.22450941035997         0.0                     # Si
312  312  1    26.63623361170832        3.22450941035997         0.0                     # Si
313  313  1    0.8592077382682258       3.22450941035997         0.0                     # Si
314  314  1    2.5777224304788424       3.22450941035997         0.0                     # Si