DATA FILE Produced from netmc results (cf David Morley)
2424 atoms
8080 bonds
0 angles
0 dihedrals
0 impropers
2 atom types
0 bond types
2 bond types
0 angle types
0 dihedral types
0 improper types
0.00000 141.13832496260213 xlo xhi
0.00000 122.22937451721161 ylo yhi
0.0000 200.0000 zlo zhi

# Pair Coeffs
#
# 1  O
# 2  Si

# Bond Coeffs
# 
# 1  O-O
# 2  Si-O
# 3  O-O rep
# 4  Si-Si rep

 Masses

1 28.10000 # O 
2 32.01000 # Si

 Atoms # molecular

1    1    2    101.44325080243881       67.48080051471058        5.0                      # Si
2    2    2    101.44325080243881       67.48080051471058        11.081138669036534       # Si
3    3    2    110.26413733009757       67.48080051471058        5.0                      # Si
4    4    2    110.26413733009757       67.48080051471058        11.081138669036534       # Si
5    5    2    119.08553314681684       67.48080051471058        5.0                      # Si
6    6    2    119.08553314681684       67.48080051471058        11.081138669036534       # Si
7    7    2    127.90641967447561       67.48080051471058        5.0                      # Si
8    8    2    127.90641967447561       67.48080051471058        11.081138669036534       # Si
9    9    2    136.7278154911949        67.48080051471058        5.0                      # Si
10   10   2    136.7278154911949        67.48080051471058        11.081138669036534       # Si
11   11   2    4.410443263829386        67.48080051471058        5.0                      # Si
12   12   2    4.410443263829386        67.48080051471058        11.081138669036534       # Si
13   13   2    13.231839080548646       67.48080051471058        5.0                      # Si
14   14   2    13.231839080548646       67.48080051471058        11.081138669036534       # Si
15   15   2    22.052725608207414       67.48080051471058        5.0                      # Si
16   16   2    22.052725608207414       67.48080051471058        11.081138669036534       # Si
17   17   2    30.874121424926678       67.48080051471058        5.0                      # Si
18   18   2    30.874121424926678       67.48080051471058        11.081138669036534       # Si
19   19   2    39.69500795258545        67.48080051471058        5.0                      # Si
20   20   2    39.69500795258545        67.48080051471058        11.081138669036534       # Si
21   21   2    105.85369406626819       70.02724581715249        5.0                      # Si
22   22   2    105.85369406626819       70.02724581715249        11.081138669036534       # Si
23   23   2    114.67508988298744       70.02724581715249        5.0                      # Si
24   24   2    114.67508988298744       70.02724581715249        11.081138669036534       # Si
25   25   2    123.49597641064621       70.02724581715249        5.0                      # Si
26   26   2    123.49597641064621       70.02724581715249        11.081138669036534       # Si
27   27   2    132.31737222736547       70.02724581715249        5.0                      # Si
28   28   2    132.31737222736547       70.02724581715249        11.081138669036534       # Si
29   29   2    141.13825875502425       70.02724581715249        5.0                      # Si
30   30   2    141.13825875502425       70.02724581715249        11.081138669036534       # Si
31   31   2    8.82139581671926         70.02724581715249        5.0                      # Si
32   32   2    8.82139581671926         70.02724581715249        11.081138669036534       # Si
33   33   2    17.64228234437803        70.02724581715249        5.0                      # Si
34   34   2    17.64228234437803        70.02724581715249        11.081138669036534       # Si
35   35   2    26.46367816109729        70.02724581715249        5.0                      # Si
36   36   2    26.46367816109729        70.02724581715249        11.081138669036534       # Si
37   37   2    35.28456468875606        70.02724581715249        5.0                      # Si
38   38   2    35.28456468875606        70.02724581715249        11.081138669036534       # Si
39   39   2    97.03280753860942        75.12013642203631        5.0                      # Si
40   40   2    97.03280753860942        75.12013642203631        11.081138669036534       # Si
41   41   2    105.85369406626819       75.12013642203631        5.0                      # Si
42   42   2    105.85369406626819       75.12013642203631        11.081138669036534       # Si
43   43   2    114.67508988298744       75.12013642203631        5.0                      # Si
44   44   2    114.67508988298744       75.12013642203631        11.081138669036534       # Si
45   45   2    123.49597641064621       75.12013642203631        5.0                      # Si
46   46   2    123.49597641064621       75.12013642203631        11.081138669036534       # Si
47   47   2    132.31737222736547       75.12013642203631        5.0                      # Si
48   48   2    132.31737222736547       75.12013642203631        11.081138669036534       # Si
49   49   2    141.13825875502425       75.12013642203631        5.0                      # Si
50   50   2    141.13825875502425       75.12013642203631        11.081138669036534       # Si
51   51   2    8.82139581671926         75.12013642203631        5.0                      # Si
52   52   2    8.82139581671926         75.12013642203631        11.081138669036534       # Si
53   53   2    17.64228234437803        75.12013642203631        5.0                      # Si
54   54   2    17.64228234437803        75.12013642203631        11.081138669036534       # Si
55   55   2    26.46367816109729        75.12013642203631        5.0                      # Si
56   56   2    26.46367816109729        75.12013642203631        11.081138669036534       # Si
57   57   2    35.28456468875606        75.12013642203631        5.0                      # Si
58   58   2    35.28456468875606        75.12013642203631        11.081138669036534       # Si
59   59   2    44.105960505475316       75.12013642203631        5.0                      # Si
60   60   2    44.105960505475316       75.12013642203631        11.081138669036534       # Si
61   61   2    92.62185498571954        77.6665817244782         5.0                      # Si
62   62   2    92.62185498571954        77.6665817244782         11.081138669036534       # Si
63   63   2    101.44325080243881       77.6665817244782         5.0                      # Si
64   64   2    101.44325080243881       77.6665817244782         11.081138669036534       # Si
65   65   2    110.26413733009757       77.6665817244782         5.0                      # Si
66   66   2    110.26413733009757       77.6665817244782         11.081138669036534       # Si
67   67   2    119.08553314681684       77.6665817244782         5.0                      # Si
68   68   2    119.08553314681684       77.6665817244782         11.081138669036534       # Si
69   69   2    127.90641967447561       77.6665817244782         5.0                      # Si
70   70   2    127.90641967447561       77.6665817244782         11.081138669036534       # Si
71   71   2    136.7278154911949        77.6665817244782         5.0                      # Si
72   72   2    136.7278154911949        77.6665817244782         11.081138669036534       # Si
73   73   2    4.410443263829386        77.6665817244782         5.0                      # Si
74   74   2    4.410443263829386        77.6665817244782         11.081138669036534       # Si
75   75   2    13.231839080548646       77.6665817244782         5.0                      # Si
76   76   2    13.231839080548646       77.6665817244782         11.081138669036534       # Si
77   77   2    22.052725608207414       77.6665817244782         5.0                      # Si
78   78   2    22.052725608207414       77.6665817244782         11.081138669036534       # Si
79   79   2    30.874121424926678       77.6665817244782         5.0                      # Si
80   80   2    30.874121424926678       77.6665817244782         11.081138669036534       # Si
81   81   2    39.69500795258545        77.6665817244782         5.0                      # Si
82   82   2    39.69500795258545        77.6665817244782         11.081138669036534       # Si
83   83   2    48.51640376930471        77.6665817244782         5.0                      # Si
84   84   2    48.51640376930471        77.6665817244782         11.081138669036534       # Si
85   85   2    83.80096845806077        82.75947232936203        5.0                      # Si
86   86   2    83.80096845806077        82.75947232936203        11.081138669036534       # Si
87   87   2    92.62185498571954        82.75947232936203        5.0                      # Si
88   88   2    92.62185498571954        82.75947232936203        11.081138669036534       # Si
89   89   2    101.44325080243881       82.75947232936203        5.0                      # Si
90   90   2    101.44325080243881       82.75947232936203        11.081138669036534       # Si
91   91   2    110.26413733009757       82.75947232936203        5.0                      # Si
92   92   2    110.26413733009757       82.75947232936203        11.081138669036534       # Si
93   93   2    119.08553314681684       82.75947232936203        5.0                      # Si
94   94   2    119.08553314681684       82.75947232936203        11.081138669036534       # Si
95   95   2    127.90641967447561       82.75947232936203        5.0                      # Si
96   96   2    127.90641967447561       82.75947232936203        11.081138669036534       # Si
97   97   2    136.7278154911949        82.75947232936203        5.0                      # Si
98   98   2    136.7278154911949        82.75947232936203        11.081138669036534       # Si
99   99   2    4.410443263829386        82.75947232936203        5.0                      # Si
100  100  2    4.410443263829386        82.75947232936203        11.081138669036534       # Si
101  101  2    13.231839080548646       82.75947232936203        5.0                      # Si
102  102  2    13.231839080548646       82.75947232936203        11.081138669036534       # Si
103  103  2    22.052725608207414       82.75947232936203        5.0                      # Si
104  104  2    22.052725608207414       82.75947232936203        11.081138669036534       # Si
105  105  2    30.874121424926678       82.75947232936203        5.0                      # Si
106  106  2    30.874121424926678       82.75947232936203        11.081138669036534       # Si
107  107  2    39.69500795258545        82.75947232936203        5.0                      # Si
108  108  2    39.69500795258545        82.75947232936203        11.081138669036534       # Si
109  109  2    48.51640376930471        82.75947232936203        5.0                      # Si
110  110  2    48.51640376930471        82.75947232936203        11.081138669036534       # Si
111  111  2    57.33729029696348        82.75947232936203        5.0                      # Si
112  112  2    57.33729029696348        82.75947232936203        11.081138669036534       # Si
113  113  2    70.56912937751213        85.30591763180394        5.0                      # Si
114  114  2    70.56912937751213        85.30591763180394        11.081138669036534       # Si
115  115  2    79.39052519423139        85.30591763180394        5.0                      # Si
116  116  2    79.39052519423139        85.30591763180394        11.081138669036534       # Si
117  117  2    88.21141172189016        85.30591763180394        5.0                      # Si
118  118  2    88.21141172189016        85.30591763180394        11.081138669036534       # Si
119  119  2    97.03280753860942        85.30591763180394        5.0                      # Si
120  120  2    97.03280753860942        85.30591763180394        11.081138669036534       # Si
121  121  2    105.85369406626819       85.30591763180394        5.0                      # Si
122  122  2    105.85369406626819       85.30591763180394        11.081138669036534       # Si
123  123  2    114.67508988298744       85.30591763180394        5.0                      # Si
124  124  2    114.67508988298744       85.30591763180394        11.081138669036534       # Si
125  125  2    123.49597641064621       85.30591763180394        5.0                      # Si
126  126  2    123.49597641064621       85.30591763180394        11.081138669036534       # Si
127  127  2    132.31737222736547       85.30591763180394        5.0                      # Si
128  128  2    132.31737222736547       85.30591763180394        11.081138669036534       # Si
129  129  2    141.13825875502425       85.30591763180394        5.0                      # Si
130  130  2    141.13825875502425       85.30591763180394        11.081138669036534       # Si
131  131  2    8.82139581671926         85.30591763180394        5.0                      # Si
132  132  2    8.82139581671926         85.30591763180394        11.081138669036534       # Si
133  133  2    17.64228234437803        85.30591763180394        5.0                      # Si
134  134  2    17.64228234437803        85.30591763180394        11.081138669036534       # Si
135  135  2    26.46367816109729        85.30591763180394        5.0                      # Si
136  136  2    26.46367816109729        85.30591763180394        11.081138669036534       # Si
137  137  2    35.28456468875606        85.30591763180394        5.0                      # Si
138  138  2    35.28456468875606        85.30591763180394        11.081138669036534       # Si
139  139  2    44.105960505475316       85.30591763180394        5.0                      # Si
140  140  2    44.105960505475316       85.30591763180394        11.081138669036534       # Si
141  141  2    52.926847033134095       85.30591763180394        5.0                      # Si
142  142  2    52.926847033134095       85.30591763180394        11.081138669036534       # Si
143  143  2    61.748242849853355       85.30591763180394        5.0                      # Si
144  144  2    61.748242849853355       85.30591763180394        11.081138669036534       # Si
145  145  2    79.39052519423139        90.39880823668776        5.0                      # Si
146  146  2    79.39052519423139        90.39880823668776        11.081138669036534       # Si
147  147  2    88.21141172189016        90.39880823668776        5.0                      # Si
148  148  2    88.21141172189016        90.39880823668776        11.081138669036534       # Si
149  149  2    97.03280753860942        90.39880823668776        5.0                      # Si
150  150  2    97.03280753860942        90.39880823668776        11.081138669036534       # Si
151  151  2    105.85369406626819       90.39880823668776        5.0                      # Si
152  152  2    105.85369406626819       90.39880823668776        11.081138669036534       # Si
153  153  2    114.67508988298744       90.39880823668776        5.0                      # Si
154  154  2    114.67508988298744       90.39880823668776        11.081138669036534       # Si
155  155  2    123.49597641064621       90.39880823668776        5.0                      # Si
156  156  2    123.49597641064621       90.39880823668776        11.081138669036534       # Si
157  157  2    132.31737222736547       90.39880823668776        5.0                      # Si
158  158  2    132.31737222736547       90.39880823668776        11.081138669036534       # Si
159  159  2    141.13825875502425       90.39880823668776        5.0                      # Si
160  160  2    141.13825875502425       90.39880823668776        11.081138669036534       # Si
161  161  2    8.82139581671926         90.39880823668776        5.0                      # Si
162  162  2    8.82139581671926         90.39880823668776        11.081138669036534       # Si
163  163  2    17.64228234437803        90.39880823668776        5.0                      # Si
164  164  2    17.64228234437803        90.39880823668776        11.081138669036534       # Si
165  165  2    26.46367816109729        90.39880823668776        5.0                      # Si
166  166  2    26.46367816109729        90.39880823668776        11.081138669036534       # Si
167  167  2    35.28456468875606        90.39880823668776        5.0                      # Si
168  168  2    35.28456468875606        90.39880823668776        11.081138669036534       # Si
169  169  2    44.105960505475316       90.39880823668776        5.0                      # Si
170  170  2    44.105960505475316       90.39880823668776        11.081138669036534       # Si
171  171  2    52.926847033134095       90.39880823668776        5.0                      # Si
172  172  2    52.926847033134095       90.39880823668776        11.081138669036534       # Si
173  173  2    61.748242849853355       90.39880823668776        5.0                      # Si
174  174  2    61.748242849853355       90.39880823668776        11.081138669036534       # Si
175  175  2    70.56912937751213        90.39880823668776        5.0                      # Si
176  176  2    70.56912937751213        90.39880823668776        11.081138669036534       # Si
177  177  2    74.9795726413415         92.94525353912967        5.0                      # Si
178  178  2    74.9795726413415         92.94525353912967        11.081138669036534       # Si
179  179  2    83.80096845806077        92.94525353912967        5.0                      # Si
180  180  2    83.80096845806077        92.94525353912967        11.081138669036534       # Si
181  181  2    92.62185498571954        92.94525353912967        5.0                      # Si
182  182  2    92.62185498571954        92.94525353912967        11.081138669036534       # Si
183  183  2    101.44325080243881       92.94525353912967        5.0                      # Si
184  184  2    101.44325080243881       92.94525353912967        11.081138669036534       # Si
185  185  2    110.26413733009757       92.94525353912967        5.0                      # Si
186  186  2    110.26413733009757       92.94525353912967        11.081138669036534       # Si
187  187  2    119.08553314681684       92.94525353912967        5.0                      # Si
188  188  2    119.08553314681684       92.94525353912967        11.081138669036534       # Si
189  189  2    127.90641967447561       92.94525353912967        5.0                      # Si
190  190  2    127.90641967447561       92.94525353912967        11.081138669036534       # Si
191  191  2    136.7278154911949        92.94525353912967        5.0                      # Si
192  192  2    136.7278154911949        92.94525353912967        11.081138669036534       # Si
193  193  2    4.410443263829386        92.94525353912967        5.0                      # Si
194  194  2    4.410443263829386        92.94525353912967        11.081138669036534       # Si
195  195  2    13.231839080548646       92.94525353912967        5.0                      # Si
196  196  2    13.231839080548646       92.94525353912967        11.081138669036534       # Si
197  197  2    22.052725608207414       92.94525353912967        5.0                      # Si
198  198  2    22.052725608207414       92.94525353912967        11.081138669036534       # Si
199  199  2    30.874121424926678       92.94525353912967        5.0                      # Si
200  200  2    30.874121424926678       92.94525353912967        11.081138669036534       # Si
201  201  2    39.69500795258545        92.94525353912967        5.0                      # Si
202  202  2    39.69500795258545        92.94525353912967        11.081138669036534       # Si
203  203  2    48.51640376930471        92.94525353912967        5.0                      # Si
204  204  2    48.51640376930471        92.94525353912967        11.081138669036534       # Si
205  205  2    57.33729029696348        92.94525353912967        5.0                      # Si
206  206  2    57.33729029696348        92.94525353912967        11.081138669036534       # Si
207  207  2    66.15868611368273        92.94525353912967        5.0                      # Si
208  208  2    66.15868611368273        92.94525353912967        11.081138669036534       # Si
209  209  2    74.9795726413415         98.03814414401349        5.0                      # Si
210  210  2    74.9795726413415         98.03814414401349        11.081138669036534       # Si
211  211  2    83.80096845806077        98.03814414401349        5.0                      # Si
212  212  2    83.80096845806077        98.03814414401349        11.081138669036534       # Si
213  213  2    92.62185498571954        98.03814414401349        5.0                      # Si
214  214  2    92.62185498571954        98.03814414401349        11.081138669036534       # Si
215  215  2    101.44325080243881       98.03814414401349        5.0                      # Si
216  216  2    101.44325080243881       98.03814414401349        11.081138669036534       # Si
217  217  2    110.26413733009757       98.03814414401349        5.0                      # Si
218  218  2    110.26413733009757       98.03814414401349        11.081138669036534       # Si
219  219  2    119.08553314681684       98.03814414401349        5.0                      # Si
220  220  2    119.08553314681684       98.03814414401349        11.081138669036534       # Si
221  221  2    127.90641967447561       98.03814414401349        5.0                      # Si
222  222  2    127.90641967447561       98.03814414401349        11.081138669036534       # Si
223  223  2    136.7278154911949        98.03814414401349        5.0                      # Si
224  224  2    136.7278154911949        98.03814414401349        11.081138669036534       # Si
225  225  2    4.410443263829386        98.03814414401349        5.0                      # Si
226  226  2    4.410443263829386        98.03814414401349        11.081138669036534       # Si
227  227  2    13.231839080548646       98.03814414401349        5.0                      # Si
228  228  2    13.231839080548646       98.03814414401349        11.081138669036534       # Si
229  229  2    22.052725608207414       98.03814414401349        5.0                      # Si
230  230  2    22.052725608207414       98.03814414401349        11.081138669036534       # Si
231  231  2    30.874121424926678       98.03814414401349        5.0                      # Si
232  232  2    30.874121424926678       98.03814414401349        11.081138669036534       # Si
233  233  2    39.69500795258545        98.03814414401349        5.0                      # Si
234  234  2    39.69500795258545        98.03814414401349        11.081138669036534       # Si
235  235  2    48.51640376930471        98.03814414401349        5.0                      # Si
236  236  2    48.51640376930471        98.03814414401349        11.081138669036534       # Si
237  237  2    57.33729029696348        98.03814414401349        5.0                      # Si
238  238  2    57.33729029696348        98.03814414401349        11.081138669036534       # Si
239  239  2    66.15868611368273        98.03814414401349        5.0                      # Si
240  240  2    66.15868611368273        98.03814414401349        11.081138669036534       # Si
241  241  2    70.56912937751213        100.5845894464554        5.0                      # Si
242  242  2    70.56912937751213        100.5845894464554        11.081138669036534       # Si
243  243  2    79.39052519423139        100.5845894464554        5.0                      # Si
244  244  2    79.39052519423139        100.5845894464554        11.081138669036534       # Si
245  245  2    88.21141172189016        100.5845894464554        5.0                      # Si
246  246  2    88.21141172189016        100.5845894464554        11.081138669036534       # Si
247  247  2    97.03280753860942        100.5845894464554        5.0                      # Si
248  248  2    97.03280753860942        100.5845894464554        11.081138669036534       # Si
249  249  2    105.85369406626819       100.5845894464554        5.0                      # Si
250  250  2    105.85369406626819       100.5845894464554        11.081138669036534       # Si
251  251  2    114.67508988298744       100.5845894464554        5.0                      # Si
252  252  2    114.67508988298744       100.5845894464554        11.081138669036534       # Si
253  253  2    123.49597641064621       100.5845894464554        5.0                      # Si
254  254  2    123.49597641064621       100.5845894464554        11.081138669036534       # Si
255  255  2    132.31737222736547       100.5845894464554        5.0                      # Si
256  256  2    132.31737222736547       100.5845894464554        11.081138669036534       # Si
257  257  2    141.13825875502425       100.5845894464554        5.0                      # Si
258  258  2    141.13825875502425       100.5845894464554        11.081138669036534       # Si
259  259  2    8.82139581671926         100.5845894464554        5.0                      # Si
260  260  2    8.82139581671926         100.5845894464554        11.081138669036534       # Si
261  261  2    17.64228234437803        100.5845894464554        5.0                      # Si
262  262  2    17.64228234437803        100.5845894464554        11.081138669036534       # Si
263  263  2    26.46367816109729        100.5845894464554        5.0                      # Si
264  264  2    26.46367816109729        100.5845894464554        11.081138669036534       # Si
265  265  2    35.28456468875606        100.5845894464554        5.0                      # Si
266  266  2    35.28456468875606        100.5845894464554        11.081138669036534       # Si
267  267  2    44.105960505475316       100.5845894464554        5.0                      # Si
268  268  2    44.105960505475316       100.5845894464554        11.081138669036534       # Si
269  269  2    52.926847033134095       100.5845894464554        5.0                      # Si
270  270  2    52.926847033134095       100.5845894464554        11.081138669036534       # Si
271  271  2    61.748242849853355       100.5845894464554        5.0                      # Si
272  272  2    61.748242849853355       100.5845894464554        11.081138669036534       # Si
273  273  2    79.39052519423139        105.67748005133922       5.0                      # Si
274  274  2    79.39052519423139        105.67748005133922       11.081138669036534       # Si
275  275  2    88.21141172189016        105.67748005133922       5.0                      # Si
276  276  2    88.21141172189016        105.67748005133922       11.081138669036534       # Si
277  277  2    97.03280753860942        105.67748005133922       5.0                      # Si
278  278  2    97.03280753860942        105.67748005133922       11.081138669036534       # Si
279  279  2    105.85369406626819       105.67748005133922       5.0                      # Si
280  280  2    105.85369406626819       105.67748005133922       11.081138669036534       # Si
281  281  2    114.67508988298744       105.67748005133922       5.0                      # Si
282  282  2    114.67508988298744       105.67748005133922       11.081138669036534       # Si
283  283  2    123.49597641064621       105.67748005133922       5.0                      # Si
284  284  2    123.49597641064621       105.67748005133922       11.081138669036534       # Si
285  285  2    132.31737222736547       105.67748005133922       5.0                      # Si
286  286  2    132.31737222736547       105.67748005133922       11.081138669036534       # Si
287  287  2    141.13825875502425       105.67748005133922       5.0                      # Si
288  288  2    141.13825875502425       105.67748005133922       11.081138669036534       # Si
289  289  2    8.82139581671926         105.67748005133922       5.0                      # Si
290  290  2    8.82139581671926         105.67748005133922       11.081138669036534       # Si
291  291  2    17.64228234437803        105.67748005133922       5.0                      # Si
292  292  2    17.64228234437803        105.67748005133922       11.081138669036534       # Si
293  293  2    26.46367816109729        105.67748005133922       5.0                      # Si
294  294  2    26.46367816109729        105.67748005133922       11.081138669036534       # Si
295  295  2    35.28456468875606        105.67748005133922       5.0                      # Si
296  296  2    35.28456468875606        105.67748005133922       11.081138669036534       # Si
297  297  2    44.105960505475316       105.67748005133922       5.0                      # Si
298  298  2    44.105960505475316       105.67748005133922       11.081138669036534       # Si
299  299  2    52.926847033134095       105.67748005133922       5.0                      # Si
300  300  2    52.926847033134095       105.67748005133922       11.081138669036534       # Si
301  301  2    61.748242849853355       105.67748005133922       5.0                      # Si
302  302  2    61.748242849853355       105.67748005133922       11.081138669036534       # Si
303  303  2    70.56912937751213        105.67748005133922       5.0                      # Si
304  304  2    70.56912937751213        105.67748005133922       11.081138669036534       # Si
305  305  2    74.9795726413415         108.22392535378113       5.0                      # Si
306  306  2    74.9795726413415         108.22392535378113       11.081138669036534       # Si
307  307  2    83.80096845806077        108.22392535378113       5.0                      # Si
308  308  2    83.80096845806077        108.22392535378113       11.081138669036534       # Si
309  309  2    92.62185498571954        108.22392535378113       5.0                      # Si
310  310  2    92.62185498571954        108.22392535378113       11.081138669036534       # Si
311  311  2    101.44325080243881       108.22392535378113       5.0                      # Si