DATA FILE Produced from netmc results (cf David Morley)
1130 atoms
2712 bonds
0 angles
0 dihedrals
0 impropers
2 atom types
2 bond types
0 angle types
0 dihedral types
0 improper types
0.00000 164.5690854279416 xlo xhi
0.00000 142.202191750689 ylo yhi

# Pair Coeffs
#
# 1  O
# 2  Si

# Bond Coeffs
# 
# 1  O-O
# 2  Si-O
# 3  O-O rep
# 4  Si-Si rep

 Masses

1 28.10000 # O 
2 32.01000 # Si

 Atoms # molecular

1    1    2    118.2841231516859        78.50746003977625        5.0                      # Si
2    2    2    128.56938926250584       78.50746003977625        5.0                      # Si
3    3    2    138.85524917664628       78.50746003977625        5.0                      # Si
4    4    2    149.14051528746623       78.50746003977625        5.0                      # Si
5    5    2    159.42637520160667       78.50746003977625        5.0                      # Si
6    6    2    5.142633055409966        78.50746003977625        5.0                      # Si
7    7    2    15.428492969550424       78.50746003977625        5.0                      # Si
8    8    2    25.713759080370355       78.50746003977625        5.0                      # Si
9    9    2    35.99961899451082        78.50746003977625        5.0                      # Si
10   10   2    46.284885105330744       78.50746003977625        5.0                      # Si
11   11   2    56.570745019471204       78.50746003977625        5.0                      # Si
12   12   2    66.85601113029114        78.50746003977625        5.0                      # Si
13   13   2    113.14149009627594       81.47000569408225        5.0                      # Si
14   14   2    123.42675620709588       81.47000569408225        5.0                      # Si
15   15   2    133.71261612123632       81.47000569408225        5.0                      # Si
16   16   2    143.99788223205627       81.47000569408225        5.0                      # Si
17   17   2    154.28374214619672       81.47000569408225        5.0                      # Si
18   18   2    164.56900825701666       81.47000569408225        5.0                      # Si
19   19   2    10.285859914140458       81.47000569408225        5.0                      # Si
20   20   2    20.571126024960392       81.47000569408225        5.0                      # Si
21   21   2    30.85698593910085        81.47000569408225        5.0                      # Si
22   22   2    41.142252049920785       81.47000569408225        5.0                      # Si
23   23   2    51.42811202139477        81.47000569408225        5.0                      # Si
24   24   2    61.71337807488117        81.47000569408225        5.0                      # Si
25   25   2    71.99923804635516        81.47000569408225        5.0                      # Si
26   26   2    102.85563018213549       87.39509700269423        5.0                      # Si
27   27   2    113.14149009627594       87.39509700269423        5.0                      # Si
28   28   2    123.42675620709588       87.39509700269423        5.0                      # Si
29   29   2    133.71261612123632       87.39509700269423        5.0                      # Si
30   30   2    143.99788223205627       87.39509700269423        5.0                      # Si
31   31   2    154.28374214619672       87.39509700269423        5.0                      # Si
32   32   2    164.56900825701666       87.39509700269423        5.0                      # Si
33   33   2    10.285859914140458       87.39509700269423        5.0                      # Si
34   34   2    20.571126024960392       87.39509700269423        5.0                      # Si
35   35   2    30.85698593910085        87.39509700269423        5.0                      # Si
36   36   2    41.142252049920785       87.39509700269423        5.0                      # Si
37   37   2    51.42811202139477        87.39509700269423        5.0                      # Si
38   38   2    61.71337807488117        87.39509700269423        5.0                      # Si
39   39   2    71.99923804635516        87.39509700269423        5.0                      # Si
40   40   2    82.28450409984157        87.39509700269423        5.0                      # Si
41   41   2    87.42713715525153        90.35764265700024        5.0                      # Si
42   42   2    97.71299712672553        90.35764265700024        5.0                      # Si
43   43   2    107.99826318021192       90.35764265700024        5.0                      # Si
44   44   2    118.2841231516859        90.35764265700024        5.0                      # Si
45   45   2    128.56938926250584       90.35764265700024        5.0                      # Si
46   46   2    138.85524917664628       90.35764265700024        5.0                      # Si
47   47   2    149.14051528746623       90.35764265700024        5.0                      # Si
48   48   2    159.42637520160667       90.35764265700024        5.0                      # Si
49   49   2    5.142633055409966        90.35764265700024        5.0                      # Si
50   50   2    15.428492969550424       90.35764265700024        5.0                      # Si
51   51   2    25.713759080370355       90.35764265700024        5.0                      # Si
52   52   2    35.99961899451082        90.35764265700024        5.0                      # Si
53   53   2    46.284885105330744       90.35764265700024        5.0                      # Si
54   54   2    56.570745019471204       90.35764265700024        5.0                      # Si
55   55   2    66.85601113029114        90.35764265700024        5.0                      # Si
56   56   2    77.14187110176512        90.35764265700024        5.0                      # Si
57   57   2    87.42713715525153        96.28273396561224        5.0                      # Si
58   58   2    97.71299712672553        96.28273396561224        5.0                      # Si
59   59   2    107.99826318021192       96.28273396561224        5.0                      # Si
60   60   2    118.2841231516859        96.28273396561224        5.0                      # Si
61   61   2    128.56938926250584       96.28273396561224        5.0                      # Si
62   62   2    138.85524917664628       96.28273396561224        5.0                      # Si
63   63   2    149.14051528746623       96.28273396561224        5.0                      # Si
64   64   2    159.42637520160667       96.28273396561224        5.0                      # Si
65   65   2    5.142633055409966        96.28273396561224        5.0                      # Si
66   66   2    15.428492969550424       96.28273396561224        5.0                      # Si
67   67   2    25.713759080370355       96.28273396561224        5.0                      # Si
68   68   2    35.99961899451082        96.28273396561224        5.0                      # Si
69   69   2    46.284885105330744       96.28273396561224        5.0                      # Si
70   70   2    56.570745019471204       96.28273396561224        5.0                      # Si
71   71   2    66.85601113029114        96.28273396561224        5.0                      # Si
72   72   2    77.14187110176512        96.28273396561224        5.0                      # Si
73   73   2    82.28450409984157        99.24527961991824        5.0                      # Si
74   74   2    92.57036407131555        99.24527961991824        5.0                      # Si
75   75   2    102.85563018213549       99.24527961991824        5.0                      # Si
76   76   2    113.14149009627594       99.24527961991824        5.0                      # Si
77   77   2    123.42675620709588       99.24527961991824        5.0                      # Si
78   78   2    133.71261612123632       99.24527961991824        5.0                      # Si
79   79   2    143.99788223205627       99.24527961991824        5.0                      # Si
80   80   2    154.28374214619672       99.24527961991824        5.0                      # Si
81   81   2    164.56900825701666       99.24527961991824        5.0                      # Si
82   82   2    10.285859914140458       99.24527961991824        5.0                      # Si
83   83   2    20.571126024960392       99.24527961991824        5.0                      # Si
84   84   2    30.85698593910085        99.24527961991824        5.0                      # Si
85   85   2    41.142252049920785       99.24527961991824        5.0                      # Si
86   86   2    51.42811202139477        99.24527961991824        5.0                      # Si
87   87   2    61.71337807488117        99.24527961991824        5.0                      # Si
88   88   2    71.99923804635516        99.24527961991824        5.0                      # Si
89   89   2    92.57036407131555        105.17037098586374       5.0                      # Si
90   90   2    102.85563018213549       105.17037098586374       5.0                      # Si
91   91   2    113.14149009627594       105.17037098586374       5.0                      # Si
92   92   2    123.42675620709588       105.17037098586374       5.0                      # Si
93   93   2    133.71261612123632       105.17037098586374       5.0                      # Si
94   94   2    143.99788223205627       105.17037098586374       5.0                      # Si
95   95   2    154.28374214619672       105.17037098586374       5.0                      # Si
96   96   2    164.56900825701666       105.17037098586374       5.0                      # Si
97   97   2    10.285859914140458       105.17037098586374       5.0                      # Si
98   98   2    20.571126024960392       105.17037098586374       5.0                      # Si
99   99   2    30.85698593910085        105.17037098586374       5.0                      # Si
100  100  2    41.142252049920785       105.17037098586374       5.0                      # Si
101  101  2    51.42811202139477        105.17037098586374       5.0                      # Si
102  102  2    61.71337807488117        105.17037098586374       5.0                      # Si
103  103  2    71.99923804635516        105.17037098586374       5.0                      # Si
104  104  2    82.28450409984157        105.17037098586374       5.0                      # Si
105  105  2    87.42713715525153        108.13291664016975       5.0                      # Si
106  106  2    97.71299712672553        108.13291664016975       5.0                      # Si
107  107  2    107.99826318021192       108.13291664016975       5.0                      # Si
108  108  2    118.2841231516859        108.13291664016975       5.0                      # Si
109  109  2    128.56938926250584       108.13291664016975       5.0                      # Si
110  110  2    138.85524917664628       108.13291664016975       5.0                      # Si
111  111  2    149.14051528746623       108.13291664016975       5.0                      # Si
112  112  2    159.42637520160667       108.13291664016975       5.0                      # Si
113  113  2    5.142633055409966        108.13291664016975       5.0                      # Si
114  114  2    15.428492969550424       108.13291664016975       5.0                      # Si
115  115  2    25.713759080370355       108.13291664016975       5.0                      # Si
116  116  2    35.99961899451082        108.13291664016975       5.0                      # Si
117  117  2    46.284885105330744       108.13291664016975       5.0                      # Si
118  118  2    56.570745019471204       108.13291664016975       5.0                      # Si
119  119  2    66.85601113029114        108.13291664016975       5.0                      # Si
120  120  2    77.14187110176512        108.13291664016975       5.0                      # Si
121  121  2    87.42713715525153        114.05800794878174       5.0                      # Si
122  122  2    97.71299712672553        114.05800794878174       5.0                      # Si
123  123  2    107.99826318021192       114.05800794878174       5.0                      # Si
124  124  2    118.2841231516859        114.05800794878174       5.0                      # Si
125  125  2    128.56938926250584       114.05800794878174       5.0                      # Si
126  126  2    138.85524917664628       114.05800794878174       5.0                      # Si
127  127  2    149.14051528746623       114.05800794878174       5.0                      # Si
128  128  2    159.42637520160667       114.05800794878174       5.0                      # Si
129  129  2    5.142633055409966        114.05800794878174       5.0                      # Si
130  130  2    15.428492969550424       114.05800794878174       5.0                      # Si
131  131  2    25.713759080370355       114.05800794878174       5.0                      # Si
132  132  2    35.99961899451082        114.05800794878174       5.0                      # Si
133  133  2    46.284885105330744       114.05800794878174       5.0                      # Si
134  134  2    56.570745019471204       114.05800794878174       5.0                      # Si
135  135  2    66.85601113029114        114.05800794878174       5.0                      # Si
136  136  2    77.14187110176512        114.05800794878174       5.0                      # Si
137  137  2    82.28450409984157        117.02055360308773       5.0                      # Si
138  138  2    92.57036407131555        117.02055360308773       5.0                      # Si
139  139  2    102.85563018213549       117.02055360308773       5.0                      # Si
140  140  2    113.14149009627594       117.02055360308773       5.0                      # Si
141  141  2    123.42675620709588       117.02055360308773       5.0                      # Si
142  142  2    133.71261612123632       117.02055360308773       5.0                      # Si
143  143  2    143.99788223205627       117.02055360308773       5.0                      # Si
144  144  2    154.28374214619672       117.02055360308773       5.0                      # Si
145  145  2    164.56900825701666       117.02055360308773       5.0                      # Si
146  146  2    10.285859914140458       117.02055360308773       5.0                      # Si
147  147  2    20.571126024960392       117.02055360308773       5.0                      # Si
148  148  2    30.85698593910085        117.02055360308773       5.0                      # Si
149  149  2    41.142252049920785       117.02055360308773       5.0                      # Si
150  150  2    51.42811202139477        117.02055360308773       5.0                      # Si
151  151  2    61.71337807488117        117.02055360308773       5.0                      # Si
152  152  2    71.99923804635516        117.02055360308773       5.0                      # Si
153  153  2    92.57036407131555        122.94564491169972       5.0                      # Si
154  154  2    102.85563018213549       122.94564491169972       5.0                      # Si
155  155  2    113.14149009627594       122.94564491169972       5.0                      # Si
156  156  2    123.42675620709588       122.94564491169972       5.0                      # Si
157  157  2    133.71261612123632       122.94564491169972       5.0                      # Si
158  158  2    143.99788223205627       122.94564491169972       5.0                      # Si
159  159  2    154.28374214619672       122.94564491169972       5.0                      # Si
160  160  2    164.56900825701666       122.94564491169972       5.0                      # Si
161  161  2    10.285859914140458       122.94564491169972       5.0                      # Si
162  162  2    20.571126024960392       122.94564491169972       5.0                      # Si
163  163  2    30.85698593910085        122.94564491169972       5.0                      # Si
164  164  2    41.142252049920785       122.94564491169972       5.0                      # Si
165  165  2    51.42811202139477        122.94564491169972       5.0                      # Si
166  166  2    61.71337807488117        122.94564491169972       5.0                      # Si
167  167  2    71.99923804635516        122.94564491169972       5.0                      # Si
168  168  2    82.28450409984157        122.94564491169972       5.0                      # Si
169  169  2    87.42713715525153        125.90819056600573       5.0                      # Si
170  170  2    97.71299712672553        125.90819056600573       5.0                      # Si
171  171  2    107.99826318021192       125.90819056600573       5.0                      # Si
172  172  2    118.2841231516859        125.90819056600573       5.0                      # Si
173  173  2    128.56938926250584       125.90819056600573       5.0                      # Si
174  174  2    138.85524917664628       125.90819056600573       5.0                      # Si
175  175  2    149.14051528746623       125.90819056600573       5.0                      # Si
176  176  2    159.42637520160667       125.90819056600573       5.0                      # Si
177  177  2    5.142633055409966        125.90819056600573       5.0                      # Si
178  178  2    15.428492969550424       125.90819056600573       5.0                      # Si
179  179  2    25.713759080370355       125.90819056600573       5.0                      # Si
180  180  2    35.99961899451082        125.90819056600573       5.0                      # Si
181  181  2    46.284885105330744       125.90819056600573       5.0                      # Si
182  182  2    56.570745019471204       125.90819056600573       5.0                      # Si
183  183  2    66.85601113029114        125.90819056600573       5.0                      # Si
184  184  2    77.14187110176512        125.90819056600573       5.0                      # Si
185  185  2    87.42713715525153        131.83328193195123       5.0                      # Si
186  186  2    97.71299712672553        131.83328193195123       5.0                      # Si
187  187  2    107.99826318021192       131.83328193195123       5.0                      # Si
188  188  2    118.2841231516859        131.83328193195123       5.0                      # Si
189  189  2    128.56938926250584       131.83328193195123       5.0                      # Si
190  190  2    138.85524917664628       131.83328193195123       5.0                      # Si
191  191  2    149.14051528746623       131.83328193195123       5.0                      # Si
192  192  2    159.42637520160667       131.83328193195123       5.0                      # Si
193  193  2    5.142633055409966        131.83328193195123       5.0                      # Si
194  194  2    15.428492969550424       131.83328193195123       5.0                      # Si
195  195  2    25.713759080370355       131.83328193195123       5.0                      # Si
196  196  2    35.99961899451082        131.83328193195123       5.0                      # Si
197  197  2    46.284885105330744       131.83328193195123       5.0                      # Si
198  198  2    56.570745019471204       131.83328193195123       5.0                      # Si
199  199  2    66.85601113029114        131.83328193195123       5.0                      # Si
200  200  2    77.14187110176512        131.83328193195123       5.0                      # Si
201  201  2    82.28450409984157        134.79582758625725       5.0                      # Si
202  202  2    92.57036407131555        134.79582758625725       5.0                      # Si
203  203  2    102.85563018213549       134.79582758625725       5.0                      # Si
204  204  2    113.14149009627594       134.79582758625725       5.0                      # Si
205  205  2    123.42675620709588       134.79582758625725       5.0                      # Si
206  206  2    133.71261612123632       134.79582758625725       5.0                      # Si
207  207  2    143.99788223205627       134.79582758625725       5.0                      # Si
208  208  2    154.28374214619672       134.79582758625725       5.0                      # Si
209  209  2    164.56900825701666       134.79582758625725       5.0                      # Si
210  210  2    10.285859914140458       134.79582758625725       5.0                      # Si
211  211  2    20.571126024960392       134.79582758625725       5.0                      # Si
212  212  2    30.85698593910085        134.79582758625725       5.0                      # Si
213  213  2    41.142252049920785       134.79582758625725       5.0                      # Si
214  214  2    51.42811202139477        134.79582758625725       5.0                      # Si
215  215  2    61.71337807488117        134.79582758625725       5.0                      # Si
216  216  2    71.99923804635516        134.79582758625725       5.0                      # Si
217  217  2    92.57036407131555        140.72091889486921       5.0                      # Si
218  218  2    102.85563018213549       140.72091889486921       5.0                      # Si
219  219  2    113.14149009627594       140.72091889486921       5.0                      # Si
220  220  2    123.42675620709588       140.72091889486921       5.0                      # Si
221  221  2    133.71261612123632       140.72091889486921       5.0                      # Si
222  222  2    143.99788223205627       140.72091889486921       5.0                      # Si
223  223  2    154.28374214619672       140.72091889486921       5.0                      # Si
224  224  2    164.56900825701666       140.72091889486921       5.0                      # Si
225  225  2    10.285859914140458       140.72091889486921       5.0                      # Si
226  226  2    20.571126024960392       140.72091889486921       5.0                      # Si
227  227  2    30.85698593910085        140.72091889486921       5.0                      # Si
228  228  2    41.142252049920785       140.72091889486921       5.0                      # Si
229  229  2    51.42811202139477        140.72091889486921       5.0                      # Si
230  230  2    61.71337807488117        140.72091889486921       5.0                      # Si
231  231  2    71.99923804635516        140.72091889486921       5.0                      # Si
232  232  2    82.28450409984157        140.72091889486921       5.0                      # Si
233  233  2    87.42713715525153        1.481272855819761        5.0                      # Si
234  234  2    97.71299712672553        1.481272855819761        5.0                      # Si
235  235  2    107.99826318021192       1.481272855819761        5.0                      # Si
236  236  2    118.2841231516859        1.481272855819761        5.0                      # Si
237  237  2    128.56938926250584       1.481272855819761        5.0                      # Si
238  238  2    138.85524917664628       1.481272855819761        5.0                      # Si
239  239  2    149.14051528746623       1.481272855819761        5.0                      # Si
240  240  2    159.42637520160667       1.481272855819761        5.0                      # Si
241  241  2    5.142633055409966        1.481272855819761        5.0                      # Si
242  242  2    15.428492969550424       1.481272855819761        5.0                      # Si
243  243  2    25.713759080370355       1.481272855819761        5.0                      # Si
244  244  2    35.99961899451082        1.481272855819761        5.0                      # Si
245  245  2    46.284885105330744       1.481272855819761        5.0                      # Si
246  246  2    56.570745019471204       1.481272855819761        5.0                      # Si
247  247  2    66.85601113029114        1.481272855819761        5.0                      # Si
248  248  2    77.14187110176512        1.481272855819761        5.0                      # Si
249  249  2    87.42713715525153        7.4063641644317535       5.0                      # Si
250  250  2    97.71299712672553        7.4063641644317535       5.0                      # Si
251  251  2    107.99826318021192       7.4063641644317535       5.0                      # Si
252  252  2    118.2841231516859        7.4063641644317535       5.0                      # Si
253  253  2    128.56938926250584       7.4063641644317535       5.0                      # Si
254  254  2    138.85524917664628       7.4063641644317535       5.0                      # Si
255  255  2    149.14051528746623       7.4063641644317535       5.0                      # Si
256  256  2    159.42637520160667       7.4063641644317535       5.0                      # Si
257  257  2    5.142633055409966        7.4063641644317535       5.0                      # Si
258  258  2    15.428492969550424       7.4063641644317535       5.0                      # Si
259  259  2    25.713759080370355       7.4063641644317535       5.0                      # Si
260  260  2    35.99961899451082        7.4063641644317535       5.0                      # Si
261  261  2    46.284885105330744       7.4063641644317535       5.0                      # Si
262  262  2    56.570745019471204       7.4063641644317535       5.0                      # Si
263  263  2    66.85601113029114        7.4063641644317535       5.0                      # Si
264  264  2    77.14187110176512        7.4063641644317535       5.0                      # Si
265  265  2    82.28450409984157        10.368909818737752       5.0                      # Si
266  266  2    92.57036407131555        10.368909818737752       5.0                      # Si
267  267  2    102.85563018213549       10.368909818737752       5.0                      # Si
268  268  2    113.14149009627594       10.368909818737752       5.0                      # Si
269  269  2    123.42675620709588       10.368909818737752       5.0                      # Si
270  270  2    133.71261612123632       10.368909818737752       5.0                      # Si
271  271  2    143.99788223205627       10.368909818737752       5.0                      # Si
272  272  2    154.28374214619672       10.368909818737752       5.0                      # Si
273  273  2    164.56900825701666       10.368909818737752       5.0                      # Si
274  274  2    10.285859914140458       10.368909818737752       5.0                      # Si
275  275  2    20.571126024960392       10.368909818737752       5.0                      # Si
276  276  2    30.85698593910085        10.368909818737752       5.0                      # Si
277  277  2    41.142252049920785       10.368909818737752       5.0                      # Si
278  278  2    51.42811202139477        10.368909818737752       5.0                      # Si
279  279  2    61.71337807488117        10.368909818737752       5.0                      # Si
280  280  2    71.99923804635516        10.368909818737752       5.0                      # Si
281  281  2    92.57036407131555        16.294001127349745       5.0                      # Si
282  282  2    102.85563018213549       16.294001127349745       5.0                      # Si
283  283  2    113.14149009627594       16.294001127349745       5.0                      # Si
284  284  2    123.42675620709588       16.294001127349745       5.0                      # Si
285  285  2    133.71261612123632       16.294001127349745       5.0                      # Si
286  286  2    143.99788223205627       16.294001127349745       5.0                      # Si
287  287  2    154.28374214619672       16.294001127349745       5.0                      # Si
288  288  2    164.56900825701666       16.294001127349745       5.0                      # Si
289  289  2    10.285859914140458       16.294001127349745       5.0                      # Si
290  290  2    20.571126024960392       16.294001127349745       5.0                      # Si
291  291  2    30.85698593910085        16.294001127349745       5.0                      # Si
292  292  2    41.142252049920785       16.294001127349745       5.0                      # Si
293  293  2    51.42811202139477        16.294001127349745       5.0                      # Si
294  294  2    61.71337807488117        16.294001127349745       5.0                      # Si
295  295  2    71.99923804635516        16.294001127349745       5.0                      # Si
296  296  2    82.28450409984157        16.294001127349745       5.0                      # Si
297  297  2    87.42713715525153        19.25654678165574        5.0                      # Si
298  298  2    97.71299712672553        19.25654678165574        5.0                      # Si
299  299  2    107.99826318021192       19.25654678165574        5.0                      # Si
300  300  2    118.2841231516859        19.25654678165574        5.0                      # Si
301  301  2    128.56938926250584       19.25654678165574        5.0                      # Si
302  302  2    138.85524917664628       19.25654678165574        5.0                      # Si
303  303  2    149.14051528746623       19.25654678165574        5.0                      # Si
304  304  2    159.42637520160667       19.25654678165574        5.0                      # Si
305  305  2    5.142633055409966        19.25654678165574        5.0                      # Si
306  306  2    15.428492969550424       19.25654678165574        5.0                      # Si
307  307  2    25.713759080370355       19.25654678165574        5.0                      # Si
308  308  2    35.99961899451082        19.25654678165574        5.0                      # Si
309  309  2    46.284885105330744       19.25654678165574        5.0                      # Si
310  310  2    56.570745019471204       19.25654678165574        5.0                      # Si
311  311  2    66.85601113029114        19.25654678165574        5.0                      # Si