DATA FILE Produced from netmc results (cf David Morley)
2712 atoms
9040 bonds
0 angles
0 dihedrals
0 impropers
2 atom types
0 bond types
2 bond types
0 angle types
0 dihedral types
0 improper types
0.00000 164.5690854279416 xlo xhi
0.00000 142.202191750689 ylo yhi
0.0000 200.0000 zlo zhi

# Pair Coeffs
#
# 1  O
# 2  Si

# Bond Coeffs
# 
# 1  O-O
# 2  Si-O
# 3  O-O rep
# 4  Si-Si rep

 Masses

1 28.10000 # O 
2 32.01000 # Si

 Atoms # molecular

1    1    1    118.2841231516859        78.50746003977625        8.040569334518267        # O
2    2    1    128.56938926250584       78.50746003977625        8.040569334518267        # O
3    3    1    138.85524917664628       78.50746003977625        8.040569334518267        # O
4    4    1    149.14051528746623       78.50746003977625        8.040569334518267        # O
5    5    1    159.42637520160667       78.50746003977625        8.040569334518267        # O
6    6    1    5.142633055409966        78.50746003977625        8.040569334518267        # O
7    7    1    15.428492969550424       78.50746003977625        8.040569334518267        # O
8    8    1    25.713759080370355       78.50746003977625        8.040569334518267        # O
9    9    1    35.99961899451082        78.50746003977625        8.040569334518267        # O
10   10   1    46.284885105330744       78.50746003977625        8.040569334518267        # O
11   11   1    56.570745019471204       78.50746003977625        8.040569334518267        # O
12   12   1    66.85601113029114        78.50746003977625        8.040569334518267        # O
13   13   1    113.14149009627594       81.47000569408225        8.040569334518267        # O
14   14   1    123.42675620709588       81.47000569408225        8.040569334518267        # O
15   15   1    133.71261612123632       81.47000569408225        8.040569334518267        # O
16   16   1    143.99788223205627       81.47000569408225        8.040569334518267        # O
17   17   1    154.28374214619672       81.47000569408225        8.040569334518267        # O
18   18   1    164.56900825701666       81.47000569408225        8.040569334518267        # O
19   19   1    10.285859914140458       81.47000569408225        8.040569334518267        # O
20   20   1    20.571126024960392       81.47000569408225        8.040569334518267        # O
21   21   1    30.85698593910085        81.47000569408225        8.040569334518267        # O
22   22   1    41.142252049920785       81.47000569408225        8.040569334518267        # O
23   23   1    51.42811202139477        81.47000569408225        8.040569334518267        # O
24   24   1    61.71337807488117        81.47000569408225        8.040569334518267        # O
25   25   1    71.99923804635516        81.47000569408225        8.040569334518267        # O
26   26   1    102.85563018213549       87.39509700269423        8.040569334518267        # O
27   27   1    113.14149009627594       87.39509700269423        8.040569334518267        # O
28   28   1    123.42675620709588       87.39509700269423        8.040569334518267        # O
29   29   1    133.71261612123632       87.39509700269423        8.040569334518267        # O
30   30   1    143.99788223205627       87.39509700269423        8.040569334518267        # O
31   31   1    154.28374214619672       87.39509700269423        8.040569334518267        # O
32   32   1    164.56900825701666       87.39509700269423        8.040569334518267        # O
33   33   1    10.285859914140458       87.39509700269423        8.040569334518267        # O
34   34   1    20.571126024960392       87.39509700269423        8.040569334518267        # O
35   35   1    30.85698593910085        87.39509700269423        8.040569334518267        # O
36   36   1    41.142252049920785       87.39509700269423        8.040569334518267        # O
37   37   1    51.42811202139477        87.39509700269423        8.040569334518267        # O
38   38   1    61.71337807488117        87.39509700269423        8.040569334518267        # O
39   39   1    71.99923804635516        87.39509700269423        8.040569334518267        # O
40   40   1    82.28450409984157        87.39509700269423        8.040569334518267        # O
41   41   1    87.42713715525153        90.35764265700024        8.040569334518267        # O
42   42   1    97.71299712672553        90.35764265700024        8.040569334518267        # O
43   43   1    107.99826318021192       90.35764265700024        8.040569334518267        # O
44   44   1    118.2841231516859        90.35764265700024        8.040569334518267        # O
45   45   1    128.56938926250584       90.35764265700024        8.040569334518267        # O
46   46   1    138.85524917664628       90.35764265700024        8.040569334518267        # O
47   47   1    149.14051528746623       90.35764265700024        8.040569334518267        # O
48   48   1    159.42637520160667       90.35764265700024        8.040569334518267        # O
49   49   1    5.142633055409966        90.35764265700024        8.040569334518267        # O
50   50   1    15.428492969550424       90.35764265700024        8.040569334518267        # O
51   51   1    25.713759080370355       90.35764265700024        8.040569334518267        # O
52   52   1    35.99961899451082        90.35764265700024        8.040569334518267        # O
53   53   1    46.284885105330744       90.35764265700024        8.040569334518267        # O
54   54   1    56.570745019471204       90.35764265700024        8.040569334518267        # O
55   55   1    66.85601113029114        90.35764265700024        8.040569334518267        # O
56   56   1    77.14187110176512        90.35764265700024        8.040569334518267        # O
57   57   1    87.42713715525153        96.28273396561224        8.040569334518267        # O
58   58   1    97.71299712672553        96.28273396561224        8.040569334518267        # O
59   59   1    107.99826318021192       96.28273396561224        8.040569334518267        # O
60   60   1    118.2841231516859        96.28273396561224        8.040569334518267        # O
61   61   1    128.56938926250584       96.28273396561224        8.040569334518267        # O
62   62   1    138.85524917664628       96.28273396561224        8.040569334518267        # O
63   63   1    149.14051528746623       96.28273396561224        8.040569334518267        # O
64   64   1    159.42637520160667       96.28273396561224        8.040569334518267        # O
65   65   1    5.142633055409966        96.28273396561224        8.040569334518267        # O
66   66   1    15.428492969550424       96.28273396561224        8.040569334518267        # O
67   67   1    25.713759080370355       96.28273396561224        8.040569334518267        # O
68   68   1    35.99961899451082        96.28273396561224        8.040569334518267        # O
69   69   1    46.284885105330744       96.28273396561224        8.040569334518267        # O
70   70   1    56.570745019471204       96.28273396561224        8.040569334518267        # O
71   71   1    66.85601113029114        96.28273396561224        8.040569334518267        # O
72   72   1    77.14187110176512        96.28273396561224        8.040569334518267        # O
73   73   1    82.28450409984157        99.24527961991824        8.040569334518267        # O
74   74   1    92.57036407131555        99.24527961991824        8.040569334518267        # O
75   75   1    102.85563018213549       99.24527961991824        8.040569334518267        # O
76   76   1    113.14149009627594       99.24527961991824        8.040569334518267        # O
77   77   1    123.42675620709588       99.24527961991824        8.040569334518267        # O
78   78   1    133.71261612123632       99.24527961991824        8.040569334518267        # O
79   79   1    143.99788223205627       99.24527961991824        8.040569334518267        # O
80   80   1    154.28374214619672       99.24527961991824        8.040569334518267        # O
81   81   1    164.56900825701666       99.24527961991824        8.040569334518267        # O
82   82   1    10.285859914140458       99.24527961991824        8.040569334518267        # O
83   83   1    20.571126024960392       99.24527961991824        8.040569334518267        # O
84   84   1    30.85698593910085        99.24527961991824        8.040569334518267        # O
85   85   1    41.142252049920785       99.24527961991824        8.040569334518267        # O
86   86   1    51.42811202139477        99.24527961991824        8.040569334518267        # O
87   87   1    61.71337807488117        99.24527961991824        8.040569334518267        # O
88   88   1    71.99923804635516        99.24527961991824        8.040569334518267        # O
89   89   1    92.57036407131555        105.17037098586374       8.040569334518267        # O
90   90   1    102.85563018213549       105.17037098586374       8.040569334518267        # O
91   91   1    113.14149009627594       105.17037098586374       8.040569334518267        # O
92   92   1    123.42675620709588       105.17037098586374       8.040569334518267        # O
93   93   1    133.71261612123632       105.17037098586374       8.040569334518267        # O
94   94   1    143.99788223205627       105.17037098586374       8.040569334518267        # O
95   95   1    154.28374214619672       105.17037098586374       8.040569334518267        # O
96   96   1    164.56900825701666       105.17037098586374       8.040569334518267        # O
97   97   1    10.285859914140458       105.17037098586374       8.040569334518267        # O
98   98   1    20.571126024960392       105.17037098586374       8.040569334518267        # O
99   99   1    30.85698593910085        105.17037098586374       8.040569334518267        # O
100  100  1    41.142252049920785       105.17037098586374       8.040569334518267        # O
101  101  1    51.42811202139477        105.17037098586374       8.040569334518267        # O
102  102  1    61.71337807488117        105.17037098586374       8.040569334518267        # O
103  103  1    71.99923804635516        105.17037098586374       8.040569334518267        # O
104  104  1    82.28450409984157        105.17037098586374       8.040569334518267        # O
105  105  1    87.42713715525153        108.13291664016975       8.040569334518267        # O
106  106  1    97.71299712672553        108.13291664016975       8.040569334518267        # O
107  107  1    107.99826318021192       108.13291664016975       8.040569334518267        # O
108  108  1    118.2841231516859        108.13291664016975       8.040569334518267        # O
109  109  1    128.56938926250584       108.13291664016975       8.040569334518267        # O
110  110  1    138.85524917664628       108.13291664016975       8.040569334518267        # O
111  111  1    149.14051528746623       108.13291664016975       8.040569334518267        # O
112  112  1    159.42637520160667       108.13291664016975       8.040569334518267        # O
113  113  1    5.142633055409966        108.13291664016975       8.040569334518267        # O
114  114  1    15.428492969550424       108.13291664016975       8.040569334518267        # O
115  115  1    25.713759080370355       108.13291664016975       8.040569334518267        # O
116  116  1    35.99961899451082        108.13291664016975       8.040569334518267        # O
117  117  1    46.284885105330744       108.13291664016975       8.040569334518267        # O
118  118  1    56.570745019471204       108.13291664016975       8.040569334518267        # O
119  119  1    66.85601113029114        108.13291664016975       8.040569334518267        # O
120  120  1    77.14187110176512        108.13291664016975       8.040569334518267        # O
121  121  1    87.42713715525153        114.05800794878174       8.040569334518267        # O
122  122  1    97.71299712672553        114.05800794878174       8.040569334518267        # O
123  123  1    107.99826318021192       114.05800794878174       8.040569334518267        # O
124  124  1    118.2841231516859        114.05800794878174       8.040569334518267        # O
125  125  1    128.56938926250584       114.05800794878174       8.040569334518267        # O
126  126  1    138.85524917664628       114.05800794878174       8.040569334518267        # O
127  127  1    149.14051528746623       114.05800794878174       8.040569334518267        # O
128  128  1    159.42637520160667       114.05800794878174       8.040569334518267        # O
129  129  1    5.142633055409966        114.05800794878174       8.040569334518267        # O
130  130  1    15.428492969550424       114.05800794878174       8.040569334518267        # O
131  131  1    25.713759080370355       114.05800794878174       8.040569334518267        # O
132  132  1    35.99961899451082        114.05800794878174       8.040569334518267        # O
133  133  1    46.284885105330744       114.05800794878174       8.040569334518267        # O
134  134  1    56.570745019471204       114.05800794878174       8.040569334518267        # O
135  135  1    66.85601113029114        114.05800794878174       8.040569334518267        # O
136  136  1    77.14187110176512        114.05800794878174       8.040569334518267        # O
137  137  1    82.28450409984157        117.02055360308773       8.040569334518267        # O
138  138  1    92.57036407131555        117.02055360308773       8.040569334518267        # O
139  139  1    102.85563018213549       117.02055360308773       8.040569334518267        # O
140  140  1    113.14149009627594       117.02055360308773       8.040569334518267        # O
141  141  1    123.42675620709588       117.02055360308773       8.040569334518267        # O
142  142  1    133.71261612123632       117.02055360308773       8.040569334518267        # O
143  143  1    143.99788223205627       117.02055360308773       8.040569334518267        # O
144  144  1    154.28374214619672       117.02055360308773       8.040569334518267        # O
145  145  1    164.56900825701666       117.02055360308773       8.040569334518267        # O
146  146  1    10.285859914140458       117.02055360308773       8.040569334518267        # O
147  147  1    20.571126024960392       117.02055360308773       8.040569334518267        # O
148  148  1    30.85698593910085        117.02055360308773       8.040569334518267        # O
149  149  1    41.142252049920785       117.02055360308773       8.040569334518267        # O
150  150  1    51.42811202139477        117.02055360308773       8.040569334518267        # O
151  151  1    61.71337807488117        117.02055360308773       8.040569334518267        # O
152  152  1    71.99923804635516        117.02055360308773       8.040569334518267        # O
153  153  1    92.57036407131555        122.94564491169972       8.040569334518267        # O
154  154  1    102.85563018213549       122.94564491169972       8.040569334518267        # O
155  155  1    113.14149009627594       122.94564491169972       8.040569334518267        # O
156  156  1    123.42675620709588       122.94564491169972       8.040569334518267        # O
157  157  1    133.71261612123632       122.94564491169972       8.040569334518267        # O
158  158  1    143.99788223205627       122.94564491169972       8.040569334518267        # O
159  159  1    154.28374214619672       122.94564491169972       8.040569334518267        # O
160  160  1    164.56900825701666       122.94564491169972       8.040569334518267        # O
161  161  1    10.285859914140458       122.94564491169972       8.040569334518267        # O
162  162  1    20.571126024960392       122.94564491169972       8.040569334518267        # O
163  163  1    30.85698593910085        122.94564491169972       8.040569334518267        # O
164  164  1    41.142252049920785       122.94564491169972       8.040569334518267        # O
165  165  1    51.42811202139477        122.94564491169972       8.040569334518267        # O
166  166  1    61.71337807488117        122.94564491169972       8.040569334518267        # O
167  167  1    71.99923804635516        122.94564491169972       8.040569334518267        # O
168  168  1    82.28450409984157        122.94564491169972       8.040569334518267        # O
169  169  1    87.42713715525153        125.90819056600573       8.040569334518267        # O
170  170  1    97.71299712672553        125.90819056600573       8.040569334518267        # O
171  171  1    107.99826318021192       125.90819056600573       8.040569334518267        # O
172  172  1    118.2841231516859        125.90819056600573       8.040569334518267        # O
173  173  1    128.56938926250584       125.90819056600573       8.040569334518267        # O
174  174  1    138.85524917664628       125.90819056600573       8.040569334518267        # O
175  175  1    149.14051528746623       125.90819056600573       8.040569334518267        # O
176  176  1    159.42637520160667       125.90819056600573       8.040569334518267        # O
177  177  1    5.142633055409966        125.90819056600573       8.040569334518267        # O
178  178  1    15.428492969550424       125.90819056600573       8.040569334518267        # O
179  179  1    25.713759080370355       125.90819056600573       8.040569334518267        # O
180  180  1    35.99961899451082        125.90819056600573       8.040569334518267        # O
181  181  1    46.284885105330744       125.90819056600573       8.040569334518267        # O
182  182  1    56.570745019471204       125.90819056600573       8.040569334518267        # O
183  183  1    66.85601113029114        125.90819056600573       8.040569334518267        # O
184  184  1    77.14187110176512        125.90819056600573       8.040569334518267        # O
185  185  1    87.42713715525153        131.83328193195123       8.040569334518267        # O
186  186  1    97.71299712672553        131.83328193195123       8.040569334518267        # O
187  187  1    107.99826318021192       131.83328193195123       8.040569334518267        # O
188  188  1    118.2841231516859        131.83328193195123       8.040569334518267        # O
189  189  1    128.56938926250584       131.83328193195123       8.040569334518267        # O
190  190  1    138.85524917664628       131.83328193195123       8.040569334518267        # O
191  191  1    149.14051528746623       131.83328193195123       8.040569334518267        # O
192  192  1    159.42637520160667       131.83328193195123       8.040569334518267        # O
193  193  1    5.142633055409966        131.83328193195123       8.040569334518267        # O
194  194  1    15.428492969550424       131.83328193195123       8.040569334518267        # O
195  195  1    25.713759080370355       131.83328193195123       8.040569334518267        # O
196  196  1    35.99961899451082        131.83328193195123       8.040569334518267        # O
197  197  1    46.284885105330744       131.83328193195123       8.040569334518267        # O
198  198  1    56.570745019471204       131.83328193195123       8.040569334518267        # O
199  199  1    66.85601113029114        131.83328193195123       8.040569334518267        # O
200  200  1    77.14187110176512        131.83328193195123       8.040569334518267        # O
201  201  1    82.28450409984157        134.79582758625725       8.040569334518267        # O
202  202  1    92.57036407131555        134.79582758625725       8.040569334518267        # O
203  203  1    102.85563018213549       134.79582758625725       8.040569334518267        # O
204  204  1    113.14149009627594       134.79582758625725       8.040569334518267        # O
205  205  1    123.42675620709588       134.79582758625725       8.040569334518267        # O
206  206  1    133.71261612123632       134.79582758625725       8.040569334518267        # O
207  207  1    143.99788223205627       134.79582758625725       8.040569334518267        # O
208  208  1    154.28374214619672       134.79582758625725       8.040569334518267        # O
209  209  1    164.56900825701666       134.79582758625725       8.040569334518267        # O
210  210  1    10.285859914140458       134.79582758625725       8.040569334518267        # O
211  211  1    20.571126024960392       134.79582758625725       8.040569334518267        # O
212  212  1    30.85698593910085        134.79582758625725       8.040569334518267        # O
213  213  1    41.142252049920785       134.79582758625725       8.040569334518267        # O
214  214  1    51.42811202139477        134.79582758625725       8.040569334518267        # O
215  215  1    61.71337807488117        134.79582758625725       8.040569334518267        # O
216  216  1    71.99923804635516        134.79582758625725       8.040569334518267        # O
217  217  1    92.57036407131555        140.72091889486921       8.040569334518267        # O
218  218  1    102.85563018213549       140.72091889486921       8.040569334518267        # O
219  219  1    113.14149009627594       140.72091889486921       8.040569334518267        # O
220  220  1    123.42675620709588       140.72091889486921       8.040569334518267        # O
221  221  1    133.71261612123632       140.72091889486921       8.040569334518267        # O
222  222  1    143.99788223205627       140.72091889486921       8.040569334518267        # O
223  223  1    154.28374214619672       140.72091889486921       8.040569334518267        # O
224  224  1    164.56900825701666       140.72091889486921       8.040569334518267        # O
225  225  1    10.285859914140458       140.72091889486921       8.040569334518267        # O
226  226  1    20.571126024960392       140.72091889486921       8.040569334518267        # O
227  227  1    30.85698593910085        140.72091889486921       8.040569334518267        # O
228  228  1    41.142252049920785       140.72091889486921       8.040569334518267        # O
229  229  1    51.42811202139477        140.72091889486921       8.040569334518267        # O
230  230  1    61.71337807488117        140.72091889486921       8.040569334518267        # O
231  231  1    71.99923804635516        140.72091889486921       8.040569334518267        # O
232  232  1    82.28450409984157        140.72091889486921       8.040569334518267        # O
233  233  1    87.42713715525153        1.481272855819761        8.040569334518267        # O
234  234  1    97.71299712672553        1.481272855819761        8.040569334518267        # O
235  235  1    107.99826318021192       1.481272855819761        8.040569334518267        # O
236  236  1    118.2841231516859        1.481272855819761        8.040569334518267        # O
237  237  1    128.56938926250584       1.481272855819761        8.040569334518267        # O
238  238  1    138.85524917664628       1.481272855819761        8.040569334518267        # O
239  239  1    149.14051528746623       1.481272855819761        8.040569334518267        # O
240  240  1    159.42637520160667       1.481272855819761        8.040569334518267        # O
241  241  1    5.142633055409966        1.481272855819761        8.040569334518267        # O
242  242  1    15.428492969550424       1.481272855819761        8.040569334518267        # O
243  243  1    25.713759080370355       1.481272855819761        8.040569334518267        # O
244  244  1    35.99961899451082        1.481272855819761        8.040569334518267        # O
245  245  1    46.284885105330744       1.481272855819761        8.040569334518267        # O
246  246  1    56.570745019471204       1.481272855819761        8.040569334518267        # O
247  247  1    66.85601113029114        1.481272855819761        8.040569334518267        # O
248  248  1    77.14187110176512        1.481272855819761        8.040569334518267        # O
249  249  1    87.42713715525153        7.4063641644317535       8.040569334518267        # O
250  250  1    97.71299712672553        7.4063641644317535       8.040569334518267        # O
251  251  1    107.99826318021192       7.4063641644317535       8.040569334518267        # O
252  252  1    118.2841231516859        7.4063641644317535       8.040569334518267        # O
253  253  1    128.56938926250584       7.4063641644317535       8.040569334518267        # O
254  254  1    138.85524917664628       7.4063641644317535       8.040569334518267        # O
255  255  1    149.14051528746623       7.4063641644317535       8.040569334518267        # O
256  256  1    159.42637520160667       7.4063641644317535       8.040569334518267        # O
257  257  1    5.142633055409966        7.4063641644317535       8.040569334518267        # O
258  258  1    15.428492969550424       7.4063641644317535       8.040569334518267        # O
259  259  1    25.713759080370355       7.4063641644317535       8.040569334518267        # O
260  260  1    35.99961899451082        7.4063641644317535       8.040569334518267        # O
261  261  1    46.284885105330744       7.4063641644317535       8.040569334518267        # O
262  262  1    56.570745019471204       7.4063641644317535       8.040569334518267        # O
263  263  1    66.85601113029114        7.4063641644317535       8.040569334518267        # O
264  264  1    77.14187110176512        7.4063641644317535       8.040569334518267        # O
265  265  1    82.28450409984157        10.368909818737752       8.040569334518267        # O
266  266  1    92.57036407131555        10.368909818737752       8.040569334518267        # O
267  267  1    102.85563018213549       10.368909818737752       8.040569334518267        # O
268  268  1    113.14149009627594       10.368909818737752       8.040569334518267        # O
269  269  1    123.42675620709588       10.368909818737752       8.040569334518267        # O
270  270  1    133.71261612123632       10.368909818737752       8.040569334518267        # O
271  271  1    143.99788223205627       10.368909818737752       8.040569334518267        # O
272  272  1    154.28374214619672       10.368909818737752       8.040569334518267        # O
273  273  1    164.56900825701666       10.368909818737752       8.040569334518267        # O
274  274  1    10.285859914140458       10.368909818737752       8.040569334518267        # O
275  275  1    20.571126024960392       10.368909818737752       8.040569334518267        # O
276  276  1    30.85698593910085        10.368909818737752       8.040569334518267        # O
277  277  1    41.142252049920785       10.368909818737752       8.040569334518267        # O
278  278  1    51.42811202139477        10.368909818737752       8.040569334518267        # O
279  279  1    61.71337807488117        10.368909818737752       8.040569334518267        # O
280  280  1    71.99923804635516        10.368909818737752       8.040569334518267        # O
281  281  1    92.57036407131555        16.294001127349745       8.040569334518267        # O
282  282  1    102.85563018213549       16.294001127349745       8.040569334518267        # O
283  283  1    113.14149009627594       16.294001127349745       8.040569334518267        # O
284  284  1    123.42675620709588       16.294001127349745       8.040569334518267        # O
285  285  1    133.71261612123632       16.294001127349745       8.040569334518267        # O
286  286  1    143.99788223205627       16.294001127349745       8.040569334518267        # O
287  287  1    154.28374214619672       16.294001127349745       8.040569334518267        # O
288  288  1    164.56900825701666       16.294001127349745       8.040569334518267        # O
289  289  1    10.285859914140458       16.294001127349745       8.040569334518267        # O
290  290  1    20.571126024960392       16.294001127349745       8.040569334518267        # O
291  291  1    30.85698593910085        16.294001127349745       8.040569334518267        # O
292  292  1    41.142252049920785       16.294001127349745       8.040569334518267        # O
293  293  1    51.42811202139477        16.294001127349745       8.040569334518267        # O
294  294  1    61.71337807488117        16.294001127349745       8.040569334518267        # O
295  295  1    71.99923804635516        16.294001127349745       8.040569334518267        # O
296  296  1    82.28450409984157        16.294001127349745       8.040569334518267        # O
297  297  1    87.42713715525153        19.25654678165574        8.040569334518267        # O
298  298  1    97.71299712672553        19.25654678165574        8.040569334518267        # O
299  299  1    107.99826318021192       19.25654678165574        8.040569334518267        # O
300  300  1    118.2841231516859        19.25654678165574        8.040569334518267        # O
301  301  1    128.56938926250584       19.25654678165574        8.040569334518267        # O
302  302  1    138.85524917664628       19.25654678165574        8.040569334518267        # O
303  303  1    149.14051528746623       19.25654678165574        8.040569334518267        # O
304  304  1    159.42637520160667       19.25654678165574        8.040569334518267        # O
305  305  1    5.142633055409966        19.25654678165574        8.040569334518267        # O
306  306  1    15.428492969550424       19.25654678165574        8.040569334518267        # O
307  307  1    25.713759080370355       19.25654678165574        8.040569334518267        # O
308  308  1    35.99961899451082        19.25654678165574        8.040569334518267        # O
309  309  1    46.284885105330744       19.25654678165574        8.040569334518267        # O
310  310  1    56.570745019471204       19.25654678165574        8.040569334518267        # O
311  311  1    66.85601113029114        19.25654678165574        8.040569334518267        # O
312  312  1    77.14187110176512        19.25654678165574        8.040569334518267        # O
313  313  1    87.42713715525153        25.181638090267732       8.040569334518267        # O
314  314  1    97.71299712672553        25.181638090267732       8.040569334518267        # O