DATA FILE Produced from netmc results (cf David Morley)
476 atoms
714 bonds
1428 angles
0 dihedrals
0 impropers
1 atom types
1 bond types
1 angle types
0 dihedral types
0 improper types
0.00000 28.11700481 xlo xhi
0.00000 24.3530503 ylo yhi

# Pair Coeffs
#
# 1  Si

# Bond Coeffs
# 
# 1  Si-Si

# Angle Coeffs
# 
# 1  Si-Si-Si

 Masses

1 32.01000 # Si

 Atoms # molecular

1    1    1    20.20911309              13.44491319              0.0                     # Si
2    2    1    21.96637434              13.44491319              0.0                     # Si
3    3    1    23.72373704              13.44491319              0.0                     # Si
4    4    1    25.48099829              13.44491319              0.0                     # Si
5    5    1    27.23836099              13.44491319              0.0                     # Si
6    6    1    0.87863062               13.44491319              0.0                     # Si
7    7    1    2.63599333               13.44491319              0.0                     # Si
8    8    1    4.39325458               13.44491319              0.0                     # Si
9    9    1    6.15061728               13.44491319              0.0                     # Si
10   10   1    7.90787853               13.44491319              0.0                     # Si
11   11   1    9.66524123               13.44491319              0.0                     # Si
12   12   1    19.33048247              13.9522684               0.0                     # Si
13   13   1    21.08774371              13.9522684               0.0                     # Si
14   14   1    22.84510642              13.9522684               0.0                     # Si
15   15   1    24.60236766              13.9522684               0.0                     # Si
16   16   1    26.35973037              13.9522684               0.0                     # Si
17   17   1    28.11699162              13.9522684               0.0                     # Si
18   18   1    1.75736271               13.9522684               0.0                     # Si
19   19   1    3.51462395               13.9522684               0.0                     # Si
20   20   1    5.27198666               13.9522684               0.0                     # Si
21   21   1    7.0292479                13.9522684               0.0                     # Si
22   22   1    8.78661061               13.9522684               0.0                     # Si
23   23   1    10.54387186              13.9522684               0.0                     # Si
24   24   1    19.33048247              14.96697883              0.0                     # Si
25   25   1    21.08774371              14.96697883              0.0                     # Si
26   26   1    22.84510642              14.96697883              0.0                     # Si
27   27   1    24.60236766              14.96697883              0.0                     # Si
28   28   1    26.35973037              14.96697883              0.0                     # Si
29   29   1    28.11699162              14.96697883              0.0                     # Si
30   30   1    1.75736271               14.96697883              0.0                     # Si
31   31   1    3.51462395               14.96697883              0.0                     # Si
32   32   1    5.27198666               14.96697883              0.0                     # Si
33   33   1    7.0292479                14.96697883              0.0                     # Si
34   34   1    8.78661061               14.96697883              0.0                     # Si
35   35   1    10.54387186              14.96697883              0.0                     # Si
36   36   1    20.20911309              15.47433404              0.0                     # Si
37   37   1    21.96637434              15.47433404              0.0                     # Si
38   38   1    23.72373704              15.47433404              0.0                     # Si
39   39   1    25.48099829              15.47433404              0.0                     # Si
40   40   1    27.23836099              15.47433404              0.0                     # Si
41   41   1    0.87863062               15.47433404              0.0                     # Si
42   42   1    2.63599333               15.47433404              0.0                     # Si
43   43   1    4.39325458               15.47433404              0.0                     # Si
44   44   1    6.15061728               15.47433404              0.0                     # Si
45   45   1    7.90787853               15.47433404              0.0                     # Si
46   46   1    9.66524123               15.47433404              0.0                     # Si
47   47   1    18.45175038              16.48904447              0.0                     # Si
48   48   1    20.20911309              16.48904447              0.0                     # Si
49   49   1    21.96637434              16.48904447              0.0                     # Si
50   50   1    23.72373704              16.48904447              0.0                     # Si
51   51   1    25.48099829              16.48904447              0.0                     # Si
52   52   1    27.23836099              16.48904447              0.0                     # Si
53   53   1    0.87863062               16.48904447              0.0                     # Si
54   54   1    2.63599333               16.48904447              0.0                     # Si
55   55   1    4.39325458               16.48904447              0.0                     # Si
56   56   1    6.15061728               16.48904447              0.0                     # Si
57   57   1    7.90787853               16.48904447              0.0                     # Si
58   58   1    9.66524123               16.48904447              0.0                     # Si
59   59   1    11.42250248              16.48904447              0.0                     # Si
60   60   1    19.33048247              16.99639969              0.0                     # Si
61   61   1    21.08774371              16.99639969              0.0                     # Si
62   62   1    22.84510642              16.99639969              0.0                     # Si
63   63   1    24.60236766              16.99639969              0.0                     # Si
64   64   1    26.35973037              16.99639969              0.0                     # Si
65   65   1    28.11699162              16.99639969              0.0                     # Si
66   66   1    1.75736271               16.99639969              0.0                     # Si
67   67   1    3.51462395               16.99639969              0.0                     # Si
68   68   1    5.27198666               16.99639969              0.0                     # Si
69   69   1    7.0292479                16.99639969              0.0                     # Si
70   70   1    8.78661061               16.99639969              0.0                     # Si
71   71   1    10.54387186              16.99639969              0.0                     # Si
72   72   1    17.57311976              18.01111012              0.0                     # Si
73   73   1    19.33048247              18.01111012              0.0                     # Si
74   74   1    21.08774371              18.01111012              0.0                     # Si
75   75   1    22.84510642              18.01111012              0.0                     # Si
76   76   1    24.60236766              18.01111012              0.0                     # Si
77   77   1    26.35973037              18.01111012              0.0                     # Si
78   78   1    28.11699162              18.01111012              0.0                     # Si
79   79   1    1.75736271               18.01111012              0.0                     # Si
80   80   1    3.51462395               18.01111012              0.0                     # Si
81   81   1    5.27198666               18.01111012              0.0                     # Si
82   82   1    7.0292479                18.01111012              0.0                     # Si
83   83   1    8.78661061               18.01111012              0.0                     # Si
84   84   1    10.54387186              18.01111012              0.0                     # Si
85   85   1    12.30123456              18.01111012              0.0                     # Si
86   86   1    14.93712643              18.51846533              0.0                     # Si
87   87   1    16.69448914              18.51846533              0.0                     # Si
88   88   1    18.45175038              18.51846533              0.0                     # Si
89   89   1    20.20911309              18.51846533              0.0                     # Si
90   90   1    21.96637434              18.51846533              0.0                     # Si
91   91   1    23.72373704              18.51846533              0.0                     # Si
92   92   1    25.48099829              18.51846533              0.0                     # Si
93   93   1    27.23836099              18.51846533              0.0                     # Si
94   94   1    0.87863062               18.51846533              0.0                     # Si
95   95   1    2.63599333               18.51846533              0.0                     # Si
96   96   1    4.39325458               18.51846533              0.0                     # Si
97   97   1    6.15061728               18.51846533              0.0                     # Si
98   98   1    7.90787853               18.51846533              0.0                     # Si
99   99   1    9.66524123               18.51846533              0.0                     # Si
100  100  1    11.42250248              18.51846533              0.0                     # Si
101  101  1    13.17986518              18.51846533              0.0                     # Si
102  102  1    14.93712643              19.53317576              0.0                     # Si
103  103  1    16.69448914              19.53317576              0.0                     # Si
104  104  1    18.45175038              19.53317576              0.0                     # Si
105  105  1    20.20911309              19.53317576              0.0                     # Si
106  106  1    21.96637434              19.53317576              0.0                     # Si
107  107  1    23.72373704              19.53317576              0.0                     # Si
108  108  1    25.48099829              19.53317576              0.0                     # Si
109  109  1    27.23836099              19.53317576              0.0                     # Si
110  110  1    0.87863062               19.53317576              0.0                     # Si
111  111  1    2.63599333               19.53317576              0.0                     # Si
112  112  1    4.39325458               19.53317576              0.0                     # Si
113  113  1    6.15061728               19.53317576              0.0                     # Si
114  114  1    7.90787853               19.53317576              0.0                     # Si
115  115  1    9.66524123               19.53317576              0.0                     # Si
116  116  1    11.42250248              19.53317576              0.0                     # Si
117  117  1    13.17986518              19.53317576              0.0                     # Si
118  118  1    14.05849581              20.04053098              0.0                     # Si
119  119  1    15.81585851              20.04053098              0.0                     # Si
120  120  1    17.57311976              20.04053098              0.0                     # Si
121  121  1    19.33048247              20.04053098              0.0                     # Si
122  122  1    21.08774371              20.04053098              0.0                     # Si
123  123  1    22.84510642              20.04053098              0.0                     # Si
124  124  1    24.60236766              20.04053098              0.0                     # Si
125  125  1    26.35973037              20.04053098              0.0                     # Si
126  126  1    28.11699162              20.04053098              0.0                     # Si
127  127  1    1.75736271               20.04053098              0.0                     # Si
128  128  1    3.51462395               20.04053098              0.0                     # Si
129  129  1    5.27198666               20.04053098              0.0                     # Si
130  130  1    7.0292479                20.04053098              0.0                     # Si
131  131  1    8.78661061               20.04053098              0.0                     # Si
132  132  1    10.54387186              20.04053098              0.0                     # Si
133  133  1    12.30123456              20.04053098              0.0                     # Si
134  134  1    15.81585851              21.0552414               0.0                     # Si
135  135  1    17.57311976              21.0552414               0.0                     # Si
136  136  1    19.33048247              21.0552414               0.0                     # Si
137  137  1    21.08774371              21.0552414               0.0                     # Si
138  138  1    22.84510642              21.0552414               0.0                     # Si
139  139  1    24.60236766              21.0552414               0.0                     # Si
140  140  1    26.35973037              21.0552414               0.0                     # Si
141  141  1    28.11699162              21.0552414               0.0                     # Si
142  142  1    1.75736271               21.0552414               0.0                     # Si
143  143  1    3.51462395               21.0552414               0.0                     # Si
144  144  1    5.27198666               21.0552414               0.0                     # Si
145  145  1    7.0292479                21.0552414               0.0                     # Si
146  146  1    8.78661061               21.0552414               0.0                     # Si
147  147  1    10.54387186              21.0552414               0.0                     # Si
148  148  1    12.30123456              21.0552414               0.0                     # Si
149  149  1    14.05849581              21.0552414               0.0                     # Si
150  150  1    14.93712643              21.56259662              0.0                     # Si
151  151  1    16.69448914              21.56259662              0.0                     # Si
152  152  1    18.45175038              21.56259662              0.0                     # Si
153  153  1    20.20911309              21.56259662              0.0                     # Si
154  154  1    21.96637434              21.56259662              0.0                     # Si
155  155  1    23.72373704              21.56259662              0.0                     # Si
156  156  1    25.48099829              21.56259662              0.0                     # Si
157  157  1    27.23836099              21.56259662              0.0                     # Si
158  158  1    0.87863062               21.56259662              0.0                     # Si
159  159  1    2.63599333               21.56259662              0.0                     # Si
160  160  1    4.39325458               21.56259662              0.0                     # Si
161  161  1    6.15061728               21.56259662              0.0                     # Si
162  162  1    7.90787853               21.56259662              0.0                     # Si
163  163  1    9.66524123               21.56259662              0.0                     # Si
164  164  1    11.42250248              21.56259662              0.0                     # Si
165  165  1    13.17986518              21.56259662              0.0                     # Si
166  166  1    14.93712643              22.57730705              0.0                     # Si
167  167  1    16.69448914              22.57730705              0.0                     # Si
168  168  1    18.45175038              22.57730705              0.0                     # Si
169  169  1    20.20911309              22.57730705              0.0                     # Si
170  170  1    21.96637434              22.57730705              0.0                     # Si
171  171  1    23.72373704              22.57730705              0.0                     # Si
172  172  1    25.48099829              22.57730705              0.0                     # Si
173  173  1    27.23836099              22.57730705              0.0                     # Si
174  174  1    0.87863062               22.57730705              0.0                     # Si
175  175  1    2.63599333               22.57730705              0.0                     # Si
176  176  1    4.39325458               22.57730705              0.0                     # Si
177  177  1    6.15061728               22.57730705              0.0                     # Si
178  178  1    7.90787853               22.57730705              0.0                     # Si
179  179  1    9.66524123               22.57730705              0.0                     # Si
180  180  1    11.42250248              22.57730705              0.0                     # Si
181  181  1    13.17986518              22.57730705              0.0                     # Si
182  182  1    14.05849581              23.08466226              0.0                     # Si
183  183  1    15.81585851              23.08466226              0.0                     # Si
184  184  1    17.57311976              23.08466226              0.0                     # Si
185  185  1    19.33048247              23.08466226              0.0                     # Si
186  186  1    21.08774371              23.08466226              0.0                     # Si
187  187  1    22.84510642              23.08466226              0.0                     # Si
188  188  1    24.60236766              23.08466226              0.0                     # Si
189  189  1    26.35973037              23.08466226              0.0                     # Si
190  190  1    28.11699162              23.08466226              0.0                     # Si
191  191  1    1.75736271               23.08466226              0.0                     # Si
192  192  1    3.51462395               23.08466226              0.0                     # Si
193  193  1    5.27198666               23.08466226              0.0                     # Si
194  194  1    7.0292479                23.08466226              0.0                     # Si
195  195  1    8.78661061               23.08466226              0.0                     # Si
196  196  1    10.54387186              23.08466226              0.0                     # Si
197  197  1    12.30123456              23.08466226              0.0                     # Si
198  198  1    15.81585851              24.09937269              0.0                     # Si
199  199  1    17.57311976              24.09937269              0.0                     # Si
200  200  1    19.33048247              24.09937269              0.0                     # Si
201  201  1    21.08774371              24.09937269              0.0                     # Si
202  202  1    22.84510642              24.09937269              0.0                     # Si
203  203  1    24.60236766              24.09937269              0.0                     # Si
204  204  1    26.35973037              24.09937269              0.0                     # Si
205  205  1    28.11699162              24.09937269              0.0                     # Si
206  206  1    1.75736271               24.09937269              0.0                     # Si
207  207  1    3.51462395               24.09937269              0.0                     # Si
208  208  1    5.27198666               24.09937269              0.0                     # Si
209  209  1    7.0292479                24.09937269              0.0                     # Si
210  210  1    8.78661061               24.09937269              0.0                     # Si
211  211  1    10.54387186              24.09937269              0.0                     # Si
212  212  1    12.30123456              24.09937269              0.0                     # Si
213  213  1    14.05849581              24.09937269              0.0                     # Si
214  214  1    14.93712643              0.25367761               0.0                     # Si
215  215  1    16.69448914              0.25367761               0.0                     # Si
216  216  1    18.45175038              0.25367761               0.0                     # Si
217  217  1    20.20911309              0.25367761               0.0                     # Si
218  218  1    21.96637434              0.25367761               0.0                     # Si
219  219  1    23.72373704              0.25367761               0.0                     # Si
220  220  1    25.48099829              0.25367761               0.0                     # Si
221  221  1    27.23836099              0.25367761               0.0                     # Si
222  222  1    0.87863062               0.25367761               0.0                     # Si
223  223  1    2.63599333               0.25367761               0.0                     # Si
224  224  1    4.39325458               0.25367761               0.0                     # Si
225  225  1    6.15061728               0.25367761               0.0                     # Si
226  226  1    7.90787853               0.25367761               0.0                     # Si
227  227  1    9.66524123               0.25367761               0.0                     # Si
228  228  1    11.42250248              0.25367761               0.0                     # Si
229  229  1    13.17986518              0.25367761               0.0                     # Si
230  230  1    14.93712643              1.26838804               0.0                     # Si
231  231  1    16.69448914              1.26838804               0.0                     # Si
232  232  1    18.45175038              1.26838804               0.0                     # Si
233  233  1    20.20911309              1.26838804               0.0                     # Si
234  234  1    21.96637434              1.26838804               0.0                     # Si
235  235  1    23.72373704              1.26838804               0.0                     # Si
236  236  1    25.48099829              1.26838804               0.0                     # Si
237  237  1    27.23836099              1.26838804               0.0                     # Si
238  238  1    0.87863062               1.26838804               0.0                     # Si
239  239  1    2.63599333               1.26838804               0.0                     # Si
240  240  1    4.39325458               1.26838804               0.0                     # Si
241  241  1    6.15061728               1.26838804               0.0                     # Si
242  242  1    7.90787853               1.26838804               0.0                     # Si
243  243  1    9.66524123               1.26838804               0.0                     # Si
244  244  1    11.42250248              1.26838804               0.0                     # Si
245  245  1    13.17986518              1.26838804               0.0                     # Si
246  246  1    14.05849581              1.77574325               0.0                     # Si
247  247  1    15.81585851              1.77574325               0.0                     # Si
248  248  1    17.57311976              1.77574325               0.0                     # Si
249  249  1    19.33048247              1.77574325               0.0                     # Si
250  250  1    21.08774371              1.77574325               0.0                     # Si
251  251  1    22.84510642              1.77574325               0.0                     # Si
252  252  1    24.60236766              1.77574325               0.0                     # Si
253  253  1    26.35973037              1.77574325               0.0                     # Si
254  254  1    28.11699162              1.77574325               0.0                     # Si
255  255  1    1.75736271               1.77574325               0.0                     # Si
256  256  1    3.51462395               1.77574325               0.0                     # Si
257  257  1    5.27198666               1.77574325               0.0                     # Si
258  258  1    7.0292479                1.77574325               0.0                     # Si
259  259  1    8.78661061               1.77574325               0.0                     # Si
260  260  1    10.54387186              1.77574325               0.0                     # Si
261  261  1    12.30123456              1.77574325               0.0                     # Si
262  262  1    15.81585851              2.79045368               0.0                     # Si
263  263  1    17.57311976              2.79045368               0.0                     # Si
264  264  1    19.33048247              2.79045368               0.0                     # Si
265  265  1    21.08774371              2.79045368               0.0                     # Si
266  266  1    22.84510642              2.79045368               0.0                     # Si
267  267  1    24.60236766              2.79045368               0.0                     # Si
268  268  1    26.35973037              2.79045368               0.0                     # Si
269  269  1    28.11699162              2.79045368               0.0                     # Si
270  270  1    1.75736271               2.79045368               0.0                     # Si
271  271  1    3.51462395               2.79045368               0.0                     # Si
272  272  1    5.27198666               2.79045368               0.0                     # Si
273  273  1    7.0292479                2.79045368               0.0                     # Si
274  274  1    8.78661061               2.79045368               0.0                     # Si
275  275  1    10.54387186              2.79045368               0.0                     # Si
276  276  1    12.30123456              2.79045368               0.0                     # Si
277  277  1    14.05849581              2.79045368               0.0                     # Si
278  278  1    14.93712643              3.29780889               0.0                     # Si
279  279  1    16.69448914              3.29780889               0.0                     # Si
280  280  1    18.45175038              3.29780889               0.0                     # Si
281  281  1    20.20911309              3.29780889               0.0                     # Si
282  282  1    21.96637434              3.29780889               0.0                     # Si
283  283  1    23.72373704              3.29780889               0.0                     # Si
284  284  1    25.48099829              3.29780889               0.0                     # Si
285  285  1    27.23836099              3.29780889               0.0                     # Si
286  286  1    0.87863062               3.29780889               0.0                     # Si
287  287  1    2.63599333               3.29780889               0.0                     # Si
288  288  1    4.39325458               3.29780889               0.0                     # Si
289  289  1    6.15061728               3.29780889               0.0                     # Si
290  290  1    7.90787853               3.29780889               0.0                     # Si
291  291  1    9.66524123               3.29780889               0.0                     # Si
292  292  1    11.42250248              3.29780889               0.0                     # Si
293  293  1    13.17986518              3.29780889               0.0                     # Si
294  294  1    14.93712643              4.31251932               0.0                     # Si
295  295  1    16.69448914              4.31251932               0.0                     # Si
296  296  1    18.45175038              4.31251932               0.0                     # Si
297  297  1    20.20911309              4.31251932               0.0                     # Si
298  298  1    21.96637434              4.31251932               0.0                     # Si
299  299  1    23.72373704              4.31251932               0.0                     # Si
300  300  1    25.48099829              4.31251932               0.0                     # Si
301  301  1    27.23836099              4.31251932               0.0                     # Si
302  302  1    0.87863062               4.31251932               0.0                     # Si
303  303  1    2.63599333               4.31251932               0.0                     # Si
304  304  1    4.39325458               4.31251932               0.0                     # Si
305  305  1    6.15061728               4.31251932               0.0                     # Si
306  306  1    7.90787853               4.31251932               0.0                     # Si
307  307  1    9.66524123               4.31251932               0.0                     # Si
308  308  1    11.42250248              4.31251932               0.0                     # Si
309  309  1    13.17986518              4.31251932               0.0                     # Si
310  310  1    14.05849581              4.81987454               0.0                     # Si
311  311  1    15.81585851              4.81987454               0.0                     # Si
312  312  1    17.57311976              4.81987454               0.0                     # Si
313  313  1    19.33048247              4.81987454               0.0                     # Si
314  314  1    21.08774371              4.81987454               0.0                     # Si
315  315  1    22.84510642              4.81987454               0.0                     # Si