DATA FILE Produced from netmc results (cf David Morley)
1190 atoms
2856 bonds
0 angles
0 dihedrals
0 impropers
2 atom types
2 bond types
0 angle types
0 dihedral types
0 improper types
0.00000 161.2047003901935 xlo xhi
0.00000 139.62462231405834 ylo yhi

# Pair Coeffs
#
# 1  O
# 2  Si

# Bond Coeffs
# 
# 1  O-O
# 2  Si-O
# 3  O-O rep
# 4  Si-Si rep

 Masses

1 28.10000 # O 
2 32.01000 # Si

 Atoms # molecular

1    1    2    115.86596946721464       77.08442692285865        5.0                      # Si
2    2    2    125.94096768369597       77.08442692285865        5.0                      # Si
3    3    2    136.01654754879047       77.08442692285865        5.0                      # Si
4    4    2    146.0915457652718        77.08442692285865        5.0                      # Si
5    5    2    156.16712563036631       77.08442692285865        5.0                      # Si
6    6    2    5.037499079573901        77.08442692285865        5.0                      # Si
7    7    2    15.113079002001934       77.08442692285865        5.0                      # Si
8    8    2    25.18807721848326        77.08442692285865        5.0                      # Si
9    9    2    35.26365708357777        77.08442692285865        5.0                      # Si
10   10   2    45.338655300059095       77.08442692285865        5.0                      # Si
11   11   2    55.414235165153606       77.08442692285865        5.0                      # Si
12   12   2    110.82847038764073       79.99327319479035        5.0                      # Si
13   13   2    120.90346854678856       79.99327319479035        5.0                      # Si
14   14   2    130.9790484692166        79.99327319479035        5.0                      # Si
15   15   2    141.05404662836438       79.99327319479035        5.0                      # Si
16   16   2    151.1296265507924        79.99327319479035        5.0                      # Si
17   17   2    161.20462476727374       79.99327319479035        5.0                      # Si
18   18   2    10.075579922428036       79.99327319479035        5.0                      # Si
19   19   2    20.150578081575837       79.99327319479035        5.0                      # Si
20   20   2    30.226158004003867       79.99327319479035        5.0                      # Si
21   21   2    40.301156163151674       79.99327319479035        5.0                      # Si
22   22   2    50.37673608557971        79.99327319479035        5.0                      # Si
23   23   2    60.451734302061034       79.99327319479035        5.0                      # Si
24   24   2    110.82847038764073       85.81096579598724        5.0                      # Si
25   25   2    120.90346854678856       85.81096579598724        5.0                      # Si
26   26   2    130.9790484692166        85.81096579598724        5.0                      # Si
27   27   2    141.05404662836438       85.81096579598724        5.0                      # Si
28   28   2    151.1296265507924        85.81096579598724        5.0                      # Si
29   29   2    161.20462476727374       85.81096579598724        5.0                      # Si
30   30   2    10.075579922428036       85.81096579598724        5.0                      # Si
31   31   2    20.150578081575837       85.81096579598724        5.0                      # Si
32   32   2    30.226158004003867       85.81096579598724        5.0                      # Si
33   33   2    40.301156163151674       85.81096579598724        5.0                      # Si
34   34   2    50.37673608557971        85.81096579598724        5.0                      # Si
35   35   2    60.451734302061034       85.81096579598724        5.0                      # Si
36   36   2    115.86596946721464       88.71981206791892        5.0                      # Si
37   37   2    125.94096768369597       88.71981206791892        5.0                      # Si
38   38   2    136.01654754879047       88.71981206791892        5.0                      # Si
39   39   2    146.0915457652718        88.71981206791892        5.0                      # Si
40   40   2    156.16712563036631       88.71981206791892        5.0                      # Si
41   41   2    5.037499079573901        88.71981206791892        5.0                      # Si
42   42   2    15.113079002001934       88.71981206791892        5.0                      # Si
43   43   2    25.18807721848326        88.71981206791892        5.0                      # Si
44   44   2    35.26365708357777        88.71981206791892        5.0                      # Si
45   45   2    45.338655300059095       88.71981206791892        5.0                      # Si
46   46   2    55.414235165153606       88.71981206791892        5.0                      # Si
47   47   2    105.7903895447866        94.5375046691158         5.0                      # Si
48   48   2    115.86596946721464       94.5375046691158         5.0                      # Si
49   49   2    125.94096768369597       94.5375046691158         5.0                      # Si
50   50   2    136.01654754879047       94.5375046691158         5.0                      # Si
51   51   2    146.0915457652718        94.5375046691158         5.0                      # Si
52   52   2    156.16712563036631       94.5375046691158         5.0                      # Si
53   53   2    5.037499079573901        94.5375046691158         5.0                      # Si
54   54   2    15.113079002001934       94.5375046691158         5.0                      # Si
55   55   2    25.18807721848326        94.5375046691158         5.0                      # Si
56   56   2    35.26365708357777        94.5375046691158         5.0                      # Si
57   57   2    45.338655300059095       94.5375046691158         5.0                      # Si
58   58   2    55.414235165153606       94.5375046691158         5.0                      # Si
59   59   2    65.48923338163493        94.5375046691158         5.0                      # Si
60   60   2    110.82847038764073       97.44635099838102        5.0                      # Si
61   61   2    120.90346854678856       97.44635099838102        5.0                      # Si
62   62   2    130.9790484692166        97.44635099838102        5.0                      # Si
63   63   2    141.05404662836438       97.44635099838102        5.0                      # Si
64   64   2    151.1296265507924        97.44635099838102        5.0                      # Si
65   65   2    161.20462476727374       97.44635099838102        5.0                      # Si
66   66   2    10.075579922428036       97.44635099838102        5.0                      # Si
67   67   2    20.150578081575837       97.44635099838102        5.0                      # Si
68   68   2    30.226158004003867       97.44635099838102        5.0                      # Si
69   69   2    40.301156163151674       97.44635099838102        5.0                      # Si
70   70   2    50.37673608557971        97.44635099838102        5.0                      # Si
71   71   2    60.451734302061034       97.44635099838102        5.0                      # Si
72   72   2    100.75289046521272       103.26404359957792       5.0                      # Si
73   73   2    110.82847038764073       103.26404359957792       5.0                      # Si
74   74   2    120.90346854678856       103.26404359957792       5.0                      # Si
75   75   2    130.9790484692166        103.26404359957792       5.0                      # Si
76   76   2    141.05404662836438       103.26404359957792       5.0                      # Si
77   77   2    151.1296265507924        103.26404359957792       5.0                      # Si
78   78   2    161.20462476727374       103.26404359957792       5.0                      # Si
79   79   2    10.075579922428036       103.26404359957792       5.0                      # Si
80   80   2    20.150578081575837       103.26404359957792       5.0                      # Si
81   81   2    30.226158004003867       103.26404359957792       5.0                      # Si
82   82   2    40.301156163151674       103.26404359957792       5.0                      # Si
83   83   2    50.37673608557971        103.26404359957792       5.0                      # Si
84   84   2    60.451734302061034       103.26404359957792       5.0                      # Si
85   85   2    70.52731416715554        103.26404359957792       5.0                      # Si
86   86   2    85.63981146321076        106.1728898715096        5.0                      # Si
87   87   2    95.71539138563881        106.1728898715096        5.0                      # Si
88   88   2    105.7903895447866        106.1728898715096        5.0                      # Si
89   89   2    115.86596946721464       106.1728898715096        5.0                      # Si
90   90   2    125.94096768369597       106.1728898715096        5.0                      # Si
91   91   2    136.01654754879047       106.1728898715096        5.0                      # Si
92   92   2    146.0915457652718        106.1728898715096        5.0                      # Si
93   93   2    156.16712563036631       106.1728898715096        5.0                      # Si
94   94   2    5.037499079573901        106.1728898715096        5.0                      # Si
95   95   2    15.113079002001934       106.1728898715096        5.0                      # Si
96   96   2    25.18807721848326        106.1728898715096        5.0                      # Si
97   97   2    35.26365708357777        106.1728898715096        5.0                      # Si
98   98   2    45.338655300059095       106.1728898715096        5.0                      # Si
99   99   2    55.414235165153606       106.1728898715096        5.0                      # Si
100  100  2    65.48923338163493        106.1728898715096        5.0                      # Si
101  101  2    75.56481324672944        106.1728898715096        5.0                      # Si
102  102  2    85.63981146321076        111.99058247270648       5.0                      # Si
103  103  2    95.71539138563881        111.99058247270648       5.0                      # Si
104  104  2    105.7903895447866        111.99058247270648       5.0                      # Si
105  105  2    115.86596946721464       111.99058247270648       5.0                      # Si
106  106  2    125.94096768369597       111.99058247270648       5.0                      # Si
107  107  2    136.01654754879047       111.99058247270648       5.0                      # Si
108  108  2    146.0915457652718        111.99058247270648       5.0                      # Si
109  109  2    156.16712563036631       111.99058247270648       5.0                      # Si
110  110  2    5.037499079573901        111.99058247270648       5.0                      # Si
111  111  2    15.113079002001934       111.99058247270648       5.0                      # Si
112  112  2    25.18807721848326        111.99058247270648       5.0                      # Si
113  113  2    35.26365708357777        111.99058247270648       5.0                      # Si
114  114  2    45.338655300059095       111.99058247270648       5.0                      # Si
115  115  2    55.414235165153606       111.99058247270648       5.0                      # Si
116  116  2    65.48923338163493        111.99058247270648       5.0                      # Si
117  117  2    75.56481324672944        111.99058247270648       5.0                      # Si
118  118  2    80.60231238363687        114.8994288019717        5.0                      # Si
119  119  2    90.67789224873138        114.8994288019717        5.0                      # Si
120  120  2    100.75289046521272       114.8994288019717        5.0                      # Si
121  121  2    110.82847038764073       114.8994288019717        5.0                      # Si
122  122  2    120.90346854678856       114.8994288019717        5.0                      # Si
123  123  2    130.9790484692166        114.8994288019717        5.0                      # Si
124  124  2    141.05404662836438       114.8994288019717        5.0                      # Si
125  125  2    151.1296265507924        114.8994288019717        5.0                      # Si
126  126  2    161.20462476727374       114.8994288019717        5.0                      # Si
127  127  2    10.075579922428036       114.8994288019717        5.0                      # Si
128  128  2    20.150578081575837       114.8994288019717        5.0                      # Si
129  129  2    30.226158004003867       114.8994288019717        5.0                      # Si
130  130  2    40.301156163151674       114.8994288019717        5.0                      # Si
131  131  2    50.37673608557971        114.8994288019717        5.0                      # Si
132  132  2    60.451734302061034       114.8994288019717        5.0                      # Si
133  133  2    70.52731416715554        114.8994288019717        5.0                      # Si
134  134  2    90.67789224873138        120.71712134583505       5.0                      # Si
135  135  2    100.75289046521272       120.71712134583505       5.0                      # Si
136  136  2    110.82847038764073       120.71712134583505       5.0                      # Si
137  137  2    120.90346854678856       120.71712134583505       5.0                      # Si
138  138  2    130.9790484692166        120.71712134583505       5.0                      # Si
139  139  2    141.05404662836438       120.71712134583505       5.0                      # Si
140  140  2    151.1296265507924        120.71712134583505       5.0                      # Si
141  141  2    161.20462476727374       120.71712134583505       5.0                      # Si
142  142  2    10.075579922428036       120.71712134583505       5.0                      # Si
143  143  2    20.150578081575837       120.71712134583505       5.0                      # Si
144  144  2    30.226158004003867       120.71712134583505       5.0                      # Si
145  145  2    40.301156163151674       120.71712134583505       5.0                      # Si
146  146  2    50.37673608557971        120.71712134583505       5.0                      # Si
147  147  2    60.451734302061034       120.71712134583505       5.0                      # Si
148  148  2    70.52731416715554        120.71712134583505       5.0                      # Si
149  149  2    80.60231238363687        120.71712134583505       5.0                      # Si
150  150  2    85.63981146321076        123.62596767510027       5.0                      # Si
151  151  2    95.71539138563881        123.62596767510027       5.0                      # Si
152  152  2    105.7903895447866        123.62596767510027       5.0                      # Si
153  153  2    115.86596946721464       123.62596767510027       5.0                      # Si
154  154  2    125.94096768369597       123.62596767510027       5.0                      # Si
155  155  2    136.01654754879047       123.62596767510027       5.0                      # Si
156  156  2    146.0915457652718        123.62596767510027       5.0                      # Si
157  157  2    156.16712563036631       123.62596767510027       5.0                      # Si
158  158  2    5.037499079573901        123.62596767510027       5.0                      # Si
159  159  2    15.113079002001934       123.62596767510027       5.0                      # Si
160  160  2    25.18807721848326        123.62596767510027       5.0                      # Si
161  161  2    35.26365708357777        123.62596767510027       5.0                      # Si
162  162  2    45.338655300059095       123.62596767510027       5.0                      # Si
163  163  2    55.414235165153606       123.62596767510027       5.0                      # Si
164  164  2    65.48923338163493        123.62596767510027       5.0                      # Si
165  165  2    75.56481324672944        123.62596767510027       5.0                      # Si
166  166  2    85.63981146321076        129.44366027629718       5.0                      # Si
167  167  2    95.71539138563881        129.44366027629718       5.0                      # Si
168  168  2    105.7903895447866        129.44366027629718       5.0                      # Si
169  169  2    115.86596946721464       129.44366027629718       5.0                      # Si
170  170  2    125.94096768369597       129.44366027629718       5.0                      # Si
171  171  2    136.01654754879047       129.44366027629718       5.0                      # Si
172  172  2    146.0915457652718        129.44366027629718       5.0                      # Si
173  173  2    156.16712563036631       129.44366027629718       5.0                      # Si
174  174  2    5.037499079573901        129.44366027629718       5.0                      # Si
175  175  2    15.113079002001934       129.44366027629718       5.0                      # Si
176  176  2    25.18807721848326        129.44366027629718       5.0                      # Si
177  177  2    35.26365708357777        129.44366027629718       5.0                      # Si
178  178  2    45.338655300059095       129.44366027629718       5.0                      # Si
179  179  2    55.414235165153606       129.44366027629718       5.0                      # Si
180  180  2    65.48923338163493        129.44366027629718       5.0                      # Si
181  181  2    75.56481324672944        129.44366027629718       5.0                      # Si
182  182  2    80.60231238363687        132.35250654822886       5.0                      # Si
183  183  2    90.67789224873138        132.35250654822886       5.0                      # Si
184  184  2    100.75289046521272       132.35250654822886       5.0                      # Si
185  185  2    110.82847038764073       132.35250654822886       5.0                      # Si
186  186  2    120.90346854678856       132.35250654822886       5.0                      # Si
187  187  2    130.9790484692166        132.35250654822886       5.0                      # Si
188  188  2    141.05404662836438       132.35250654822886       5.0                      # Si
189  189  2    151.1296265507924        132.35250654822886       5.0                      # Si
190  190  2    161.20462476727374       132.35250654822886       5.0                      # Si
191  191  2    10.075579922428036       132.35250654822886       5.0                      # Si
192  192  2    20.150578081575837       132.35250654822886       5.0                      # Si
193  193  2    30.226158004003867       132.35250654822886       5.0                      # Si
194  194  2    40.301156163151674       132.35250654822886       5.0                      # Si
195  195  2    50.37673608557971        132.35250654822886       5.0                      # Si
196  196  2    60.451734302061034       132.35250654822886       5.0                      # Si
197  197  2    70.52731416715554        132.35250654822886       5.0                      # Si
198  198  2    90.67789224873138        138.1701991494257        5.0                      # Si
199  199  2    100.75289046521272       138.1701991494257        5.0                      # Si
200  200  2    110.82847038764073       138.1701991494257        5.0                      # Si
201  201  2    120.90346854678856       138.1701991494257        5.0                      # Si
202  202  2    130.9790484692166        138.1701991494257        5.0                      # Si
203  203  2    141.05404662836438       138.1701991494257        5.0                      # Si
204  204  2    151.1296265507924        138.1701991494257        5.0                      # Si
205  205  2    161.20462476727374       138.1701991494257        5.0                      # Si
206  206  2    10.075579922428036       138.1701991494257        5.0                      # Si
207  207  2    20.150578081575837       138.1701991494257        5.0                      # Si
208  208  2    30.226158004003867       138.1701991494257        5.0                      # Si
209  209  2    40.301156163151674       138.1701991494257        5.0                      # Si
210  210  2    50.37673608557971        138.1701991494257        5.0                      # Si
211  211  2    60.451734302061034       138.1701991494257        5.0                      # Si
212  212  2    70.52731416715554        138.1701991494257        5.0                      # Si
213  213  2    80.60231238363687        138.1701991494257        5.0                      # Si
214  214  2    85.63981146321076        1.454423164632604        5.0                      # Si
215  215  2    95.71539138563881        1.454423164632604        5.0                      # Si
216  216  2    105.7903895447866        1.454423164632604        5.0                      # Si
217  217  2    115.86596946721464       1.454423164632604        5.0                      # Si
218  218  2    125.94096768369597       1.454423164632604        5.0                      # Si
219  219  2    136.01654754879047       1.454423164632604        5.0                      # Si
220  220  2    146.0915457652718        1.454423164632604        5.0                      # Si
221  221  2    156.16712563036631       1.454423164632604        5.0                      # Si
222  222  2    5.037499079573901        1.454423164632604        5.0                      # Si
223  223  2    15.113079002001934       1.454423164632604        5.0                      # Si
224  224  2    25.18807721848326        1.454423164632604        5.0                      # Si
225  225  2    35.26365708357777        1.454423164632604        5.0                      # Si
226  226  2    45.338655300059095       1.454423164632604        5.0                      # Si
227  227  2    55.414235165153606       1.454423164632604        5.0                      # Si
228  228  2    65.48923338163493        1.454423164632604        5.0                      # Si
229  229  2    75.56481324672944        1.454423164632604        5.0                      # Si
230  230  2    85.63981146321076        7.272115765829495        5.0                      # Si
231  231  2    95.71539138563881        7.272115765829495        5.0                      # Si
232  232  2    105.7903895447866        7.272115765829495        5.0                      # Si
233  233  2    115.86596946721464       7.272115765829495        5.0                      # Si
234  234  2    125.94096768369597       7.272115765829495        5.0                      # Si
235  235  2    136.01654754879047       7.272115765829495        5.0                      # Si
236  236  2    146.0915457652718        7.272115765829495        5.0                      # Si
237  237  2    156.16712563036631       7.272115765829495        5.0                      # Si
238  238  2    5.037499079573901        7.272115765829495        5.0                      # Si
239  239  2    15.113079002001934       7.272115765829495        5.0                      # Si
240  240  2    25.18807721848326        7.272115765829495        5.0                      # Si
241  241  2    35.26365708357777        7.272115765829495        5.0                      # Si
242  242  2    45.338655300059095       7.272115765829495        5.0                      # Si
243  243  2    55.414235165153606       7.272115765829495        5.0                      # Si
244  244  2    65.48923338163493        7.272115765829495        5.0                      # Si
245  245  2    75.56481324672944        7.272115765829495        5.0                      # Si
246  246  2    80.60231238363687        10.180962037761178       5.0                      # Si
247  247  2    90.67789224873138        10.180962037761178       5.0                      # Si
248  248  2    100.75289046521272       10.180962037761178       5.0                      # Si
249  249  2    110.82847038764073       10.180962037761178       5.0                      # Si
250  250  2    120.90346854678856       10.180962037761178       5.0                      # Si
251  251  2    130.9790484692166        10.180962037761178       5.0                      # Si
252  252  2    141.05404662836438       10.180962037761178       5.0                      # Si
253  253  2    151.1296265507924        10.180962037761178       5.0                      # Si
254  254  2    161.20462476727374       10.180962037761178       5.0                      # Si
255  255  2    10.075579922428036       10.180962037761178       5.0                      # Si
256  256  2    20.150578081575837       10.180962037761178       5.0                      # Si
257  257  2    30.226158004003867       10.180962037761178       5.0                      # Si
258  258  2    40.301156163151674       10.180962037761178       5.0                      # Si
259  259  2    50.37673608557971        10.180962037761178       5.0                      # Si
260  260  2    60.451734302061034       10.180962037761178       5.0                      # Si
261  261  2    70.52731416715554        10.180962037761178       5.0                      # Si
262  262  2    90.67789224873138        15.99865463895807        5.0                      # Si
263  263  2    100.75289046521272       15.99865463895807        5.0                      # Si
264  264  2    110.82847038764073       15.99865463895807        5.0                      # Si
265  265  2    120.90346854678856       15.99865463895807        5.0                      # Si
266  266  2    130.9790484692166        15.99865463895807        5.0                      # Si
267  267  2    141.05404662836438       15.99865463895807        5.0                      # Si
268  268  2    151.1296265507924        15.99865463895807        5.0                      # Si
269  269  2    161.20462476727374       15.99865463895807        5.0                      # Si
270  270  2    10.075579922428036       15.99865463895807        5.0                      # Si
271  271  2    20.150578081575837       15.99865463895807        5.0                      # Si
272  272  2    30.226158004003867       15.99865463895807        5.0                      # Si
273  273  2    40.301156163151674       15.99865463895807        5.0                      # Si
274  274  2    50.37673608557971        15.99865463895807        5.0                      # Si
275  275  2    60.451734302061034       15.99865463895807        5.0                      # Si
276  276  2    70.52731416715554        15.99865463895807        5.0                      # Si
277  277  2    80.60231238363687        15.99865463895807        5.0                      # Si
278  278  2    85.63981146321076        18.907500910889752       5.0                      # Si
279  279  2    95.71539138563881        18.907500910889752       5.0                      # Si
280  280  2    105.7903895447866        18.907500910889752       5.0                      # Si
281  281  2    115.86596946721464       18.907500910889752       5.0                      # Si
282  282  2    125.94096768369597       18.907500910889752       5.0                      # Si
283  283  2    136.01654754879047       18.907500910889752       5.0                      # Si
284  284  2    146.0915457652718        18.907500910889752       5.0                      # Si
285  285  2    156.16712563036631       18.907500910889752       5.0                      # Si
286  286  2    5.037499079573901        18.907500910889752       5.0                      # Si
287  287  2    15.113079002001934       18.907500910889752       5.0                      # Si
288  288  2    25.18807721848326        18.907500910889752       5.0                      # Si
289  289  2    35.26365708357777        18.907500910889752       5.0                      # Si
290  290  2    45.338655300059095       18.907500910889752       5.0                      # Si
291  291  2    55.414235165153606       18.907500910889752       5.0                      # Si
292  292  2    65.48923338163493        18.907500910889752       5.0                      # Si
293  293  2    75.56481324672944        18.907500910889752       5.0                      # Si
294  294  2    85.63981146321076        24.72519351208664        5.0                      # Si
295  295  2    95.71539138563881        24.72519351208664        5.0                      # Si
296  296  2    105.7903895447866        24.72519351208664        5.0                      # Si
297  297  2    115.86596946721464       24.72519351208664        5.0                      # Si
298  298  2    125.94096768369597       24.72519351208664        5.0                      # Si
299  299  2    136.01654754879047       24.72519351208664        5.0                      # Si
300  300  2    146.0915457652718        24.72519351208664        5.0                      # Si
301  301  2    156.16712563036631       24.72519351208664        5.0                      # Si
302  302  2    5.037499079573901        24.72519351208664        5.0                      # Si
303  303  2    15.113079002001934       24.72519351208664        5.0                      # Si
304  304  2    25.18807721848326        24.72519351208664        5.0                      # Si
305  305  2    35.26365708357777        24.72519351208664        5.0                      # Si
306  306  2    45.338655300059095       24.72519351208664        5.0                      # Si
307  307  2    55.414235165153606       24.72519351208664        5.0                      # Si
308  308  2    65.48923338163493        24.72519351208664        5.0                      # Si
309  309  2    75.56481324672944        24.72519351208664        5.0                      # Si
310  310  2    80.60231238363687        27.63403984135185        5.0                      # Si
311  311  2    90.67789224873138        27.63403984135185        5.0                      # Si