DATA FILE Produced from netmc results (cf David Morley)
2856 atoms
9520 bonds
0 angles
0 dihedrals
0 impropers
2 atom types
0 bond types
2 bond types
0 angle types
0 dihedral types
0 improper types
0.00000 161.2047003901935 xlo xhi
0.00000 139.62462231405834 ylo yhi
0.0000 200.0000 zlo zhi

# Pair Coeffs
#
# 1  O
# 2  Si

# Bond Coeffs
# 
# 1  O-O
# 2  Si-O
# 3  O-O rep
# 4  Si-Si rep

 Masses

1 28.10000 # O 
2 32.01000 # Si

 Atoms # molecular

1    1    1    115.86596946721464       77.08442692285865        8.040569334518267        # O
2    2    1    125.94096768369597       77.08442692285865        8.040569334518267        # O
3    3    1    136.01654754879047       77.08442692285865        8.040569334518267        # O
4    4    1    146.0915457652718        77.08442692285865        8.040569334518267        # O
5    5    1    156.16712563036631       77.08442692285865        8.040569334518267        # O
6    6    1    5.037499079573901        77.08442692285865        8.040569334518267        # O
7    7    1    15.113079002001934       77.08442692285865        8.040569334518267        # O
8    8    1    25.18807721848326        77.08442692285865        8.040569334518267        # O
9    9    1    35.26365708357777        77.08442692285865        8.040569334518267        # O
10   10   1    45.338655300059095       77.08442692285865        8.040569334518267        # O
11   11   1    55.414235165153606       77.08442692285865        8.040569334518267        # O
12   12   1    110.82847038764073       79.99327319479035        8.040569334518267        # O
13   13   1    120.90346854678856       79.99327319479035        8.040569334518267        # O
14   14   1    130.9790484692166        79.99327319479035        8.040569334518267        # O
15   15   1    141.05404662836438       79.99327319479035        8.040569334518267        # O
16   16   1    151.1296265507924        79.99327319479035        8.040569334518267        # O
17   17   1    161.20462476727374       79.99327319479035        8.040569334518267        # O
18   18   1    10.075579922428036       79.99327319479035        8.040569334518267        # O
19   19   1    20.150578081575837       79.99327319479035        8.040569334518267        # O
20   20   1    30.226158004003867       79.99327319479035        8.040569334518267        # O
21   21   1    40.301156163151674       79.99327319479035        8.040569334518267        # O
22   22   1    50.37673608557971        79.99327319479035        8.040569334518267        # O
23   23   1    60.451734302061034       79.99327319479035        8.040569334518267        # O
24   24   1    110.82847038764073       85.81096579598724        8.040569334518267        # O
25   25   1    120.90346854678856       85.81096579598724        8.040569334518267        # O
26   26   1    130.9790484692166        85.81096579598724        8.040569334518267        # O
27   27   1    141.05404662836438       85.81096579598724        8.040569334518267        # O
28   28   1    151.1296265507924        85.81096579598724        8.040569334518267        # O
29   29   1    161.20462476727374       85.81096579598724        8.040569334518267        # O
30   30   1    10.075579922428036       85.81096579598724        8.040569334518267        # O
31   31   1    20.150578081575837       85.81096579598724        8.040569334518267        # O
32   32   1    30.226158004003867       85.81096579598724        8.040569334518267        # O
33   33   1    40.301156163151674       85.81096579598724        8.040569334518267        # O
34   34   1    50.37673608557971        85.81096579598724        8.040569334518267        # O
35   35   1    60.451734302061034       85.81096579598724        8.040569334518267        # O
36   36   1    115.86596946721464       88.71981206791892        8.040569334518267        # O
37   37   1    125.94096768369597       88.71981206791892        8.040569334518267        # O
38   38   1    136.01654754879047       88.71981206791892        8.040569334518267        # O
39   39   1    146.0915457652718        88.71981206791892        8.040569334518267        # O
40   40   1    156.16712563036631       88.71981206791892        8.040569334518267        # O
41   41   1    5.037499079573901        88.71981206791892        8.040569334518267        # O
42   42   1    15.113079002001934       88.71981206791892        8.040569334518267        # O
43   43   1    25.18807721848326        88.71981206791892        8.040569334518267        # O
44   44   1    35.26365708357777        88.71981206791892        8.040569334518267        # O
45   45   1    45.338655300059095       88.71981206791892        8.040569334518267        # O
46   46   1    55.414235165153606       88.71981206791892        8.040569334518267        # O
47   47   1    105.7903895447866        94.5375046691158         8.040569334518267        # O
48   48   1    115.86596946721464       94.5375046691158         8.040569334518267        # O
49   49   1    125.94096768369597       94.5375046691158         8.040569334518267        # O
50   50   1    136.01654754879047       94.5375046691158         8.040569334518267        # O
51   51   1    146.0915457652718        94.5375046691158         8.040569334518267        # O
52   52   1    156.16712563036631       94.5375046691158         8.040569334518267        # O
53   53   1    5.037499079573901        94.5375046691158         8.040569334518267        # O
54   54   1    15.113079002001934       94.5375046691158         8.040569334518267        # O
55   55   1    25.18807721848326        94.5375046691158         8.040569334518267        # O
56   56   1    35.26365708357777        94.5375046691158         8.040569334518267        # O
57   57   1    45.338655300059095       94.5375046691158         8.040569334518267        # O
58   58   1    55.414235165153606       94.5375046691158         8.040569334518267        # O
59   59   1    65.48923338163493        94.5375046691158         8.040569334518267        # O
60   60   1    110.82847038764073       97.44635099838102        8.040569334518267        # O
61   61   1    120.90346854678856       97.44635099838102        8.040569334518267        # O
62   62   1    130.9790484692166        97.44635099838102        8.040569334518267        # O
63   63   1    141.05404662836438       97.44635099838102        8.040569334518267        # O
64   64   1    151.1296265507924        97.44635099838102        8.040569334518267        # O
65   65   1    161.20462476727374       97.44635099838102        8.040569334518267        # O
66   66   1    10.075579922428036       97.44635099838102        8.040569334518267        # O
67   67   1    20.150578081575837       97.44635099838102        8.040569334518267        # O
68   68   1    30.226158004003867       97.44635099838102        8.040569334518267        # O
69   69   1    40.301156163151674       97.44635099838102        8.040569334518267        # O
70   70   1    50.37673608557971        97.44635099838102        8.040569334518267        # O
71   71   1    60.451734302061034       97.44635099838102        8.040569334518267        # O
72   72   1    100.75289046521272       103.26404359957792       8.040569334518267        # O
73   73   1    110.82847038764073       103.26404359957792       8.040569334518267        # O
74   74   1    120.90346854678856       103.26404359957792       8.040569334518267        # O
75   75   1    130.9790484692166        103.26404359957792       8.040569334518267        # O
76   76   1    141.05404662836438       103.26404359957792       8.040569334518267        # O
77   77   1    151.1296265507924        103.26404359957792       8.040569334518267        # O
78   78   1    161.20462476727374       103.26404359957792       8.040569334518267        # O
79   79   1    10.075579922428036       103.26404359957792       8.040569334518267        # O
80   80   1    20.150578081575837       103.26404359957792       8.040569334518267        # O
81   81   1    30.226158004003867       103.26404359957792       8.040569334518267        # O
82   82   1    40.301156163151674       103.26404359957792       8.040569334518267        # O
83   83   1    50.37673608557971        103.26404359957792       8.040569334518267        # O
84   84   1    60.451734302061034       103.26404359957792       8.040569334518267        # O
85   85   1    70.52731416715554        103.26404359957792       8.040569334518267        # O
86   86   1    85.63981146321076        106.1728898715096        8.040569334518267        # O
87   87   1    95.71539138563881        106.1728898715096        8.040569334518267        # O
88   88   1    105.7903895447866        106.1728898715096        8.040569334518267        # O
89   89   1    115.86596946721464       106.1728898715096        8.040569334518267        # O
90   90   1    125.94096768369597       106.1728898715096        8.040569334518267        # O
91   91   1    136.01654754879047       106.1728898715096        8.040569334518267        # O
92   92   1    146.0915457652718        106.1728898715096        8.040569334518267        # O
93   93   1    156.16712563036631       106.1728898715096        8.040569334518267        # O
94   94   1    5.037499079573901        106.1728898715096        8.040569334518267        # O
95   95   1    15.113079002001934       106.1728898715096        8.040569334518267        # O
96   96   1    25.18807721848326        106.1728898715096        8.040569334518267        # O
97   97   1    35.26365708357777        106.1728898715096        8.040569334518267        # O
98   98   1    45.338655300059095       106.1728898715096        8.040569334518267        # O
99   99   1    55.414235165153606       106.1728898715096        8.040569334518267        # O
100  100  1    65.48923338163493        106.1728898715096        8.040569334518267        # O
101  101  1    75.56481324672944        106.1728898715096        8.040569334518267        # O
102  102  1    85.63981146321076        111.99058247270648       8.040569334518267        # O
103  103  1    95.71539138563881        111.99058247270648       8.040569334518267        # O
104  104  1    105.7903895447866        111.99058247270648       8.040569334518267        # O
105  105  1    115.86596946721464       111.99058247270648       8.040569334518267        # O
106  106  1    125.94096768369597       111.99058247270648       8.040569334518267        # O
107  107  1    136.01654754879047       111.99058247270648       8.040569334518267        # O
108  108  1    146.0915457652718        111.99058247270648       8.040569334518267        # O
109  109  1    156.16712563036631       111.99058247270648       8.040569334518267        # O
110  110  1    5.037499079573901        111.99058247270648       8.040569334518267        # O
111  111  1    15.113079002001934       111.99058247270648       8.040569334518267        # O
112  112  1    25.18807721848326        111.99058247270648       8.040569334518267        # O
113  113  1    35.26365708357777        111.99058247270648       8.040569334518267        # O
114  114  1    45.338655300059095       111.99058247270648       8.040569334518267        # O
115  115  1    55.414235165153606       111.99058247270648       8.040569334518267        # O
116  116  1    65.48923338163493        111.99058247270648       8.040569334518267        # O
117  117  1    75.56481324672944        111.99058247270648       8.040569334518267        # O
118  118  1    80.60231238363687        114.8994288019717        8.040569334518267        # O
119  119  1    90.67789224873138        114.8994288019717        8.040569334518267        # O
120  120  1    100.75289046521272       114.8994288019717        8.040569334518267        # O
121  121  1    110.82847038764073       114.8994288019717        8.040569334518267        # O
122  122  1    120.90346854678856       114.8994288019717        8.040569334518267        # O
123  123  1    130.9790484692166        114.8994288019717        8.040569334518267        # O
124  124  1    141.05404662836438       114.8994288019717        8.040569334518267        # O
125  125  1    151.1296265507924        114.8994288019717        8.040569334518267        # O
126  126  1    161.20462476727374       114.8994288019717        8.040569334518267        # O
127  127  1    10.075579922428036       114.8994288019717        8.040569334518267        # O
128  128  1    20.150578081575837       114.8994288019717        8.040569334518267        # O
129  129  1    30.226158004003867       114.8994288019717        8.040569334518267        # O
130  130  1    40.301156163151674       114.8994288019717        8.040569334518267        # O
131  131  1    50.37673608557971        114.8994288019717        8.040569334518267        # O
132  132  1    60.451734302061034       114.8994288019717        8.040569334518267        # O
133  133  1    70.52731416715554        114.8994288019717        8.040569334518267        # O
134  134  1    90.67789224873138        120.71712134583505       8.040569334518267        # O
135  135  1    100.75289046521272       120.71712134583505       8.040569334518267        # O
136  136  1    110.82847038764073       120.71712134583505       8.040569334518267        # O
137  137  1    120.90346854678856       120.71712134583505       8.040569334518267        # O
138  138  1    130.9790484692166        120.71712134583505       8.040569334518267        # O
139  139  1    141.05404662836438       120.71712134583505       8.040569334518267        # O
140  140  1    151.1296265507924        120.71712134583505       8.040569334518267        # O
141  141  1    161.20462476727374       120.71712134583505       8.040569334518267        # O
142  142  1    10.075579922428036       120.71712134583505       8.040569334518267        # O
143  143  1    20.150578081575837       120.71712134583505       8.040569334518267        # O
144  144  1    30.226158004003867       120.71712134583505       8.040569334518267        # O
145  145  1    40.301156163151674       120.71712134583505       8.040569334518267        # O
146  146  1    50.37673608557971        120.71712134583505       8.040569334518267        # O
147  147  1    60.451734302061034       120.71712134583505       8.040569334518267        # O
148  148  1    70.52731416715554        120.71712134583505       8.040569334518267        # O
149  149  1    80.60231238363687        120.71712134583505       8.040569334518267        # O
150  150  1    85.63981146321076        123.62596767510027       8.040569334518267        # O
151  151  1    95.71539138563881        123.62596767510027       8.040569334518267        # O
152  152  1    105.7903895447866        123.62596767510027       8.040569334518267        # O
153  153  1    115.86596946721464       123.62596767510027       8.040569334518267        # O
154  154  1    125.94096768369597       123.62596767510027       8.040569334518267        # O
155  155  1    136.01654754879047       123.62596767510027       8.040569334518267        # O
156  156  1    146.0915457652718        123.62596767510027       8.040569334518267        # O
157  157  1    156.16712563036631       123.62596767510027       8.040569334518267        # O
158  158  1    5.037499079573901        123.62596767510027       8.040569334518267        # O
159  159  1    15.113079002001934       123.62596767510027       8.040569334518267        # O
160  160  1    25.18807721848326        123.62596767510027       8.040569334518267        # O
161  161  1    35.26365708357777        123.62596767510027       8.040569334518267        # O
162  162  1    45.338655300059095       123.62596767510027       8.040569334518267        # O
163  163  1    55.414235165153606       123.62596767510027       8.040569334518267        # O
164  164  1    65.48923338163493        123.62596767510027       8.040569334518267        # O
165  165  1    75.56481324672944        123.62596767510027       8.040569334518267        # O
166  166  1    85.63981146321076        129.44366027629718       8.040569334518267        # O
167  167  1    95.71539138563881        129.44366027629718       8.040569334518267        # O
168  168  1    105.7903895447866        129.44366027629718       8.040569334518267        # O
169  169  1    115.86596946721464       129.44366027629718       8.040569334518267        # O
170  170  1    125.94096768369597       129.44366027629718       8.040569334518267        # O
171  171  1    136.01654754879047       129.44366027629718       8.040569334518267        # O
172  172  1    146.0915457652718        129.44366027629718       8.040569334518267        # O
173  173  1    156.16712563036631       129.44366027629718       8.040569334518267        # O
174  174  1    5.037499079573901        129.44366027629718       8.040569334518267        # O
175  175  1    15.113079002001934       129.44366027629718       8.040569334518267        # O
176  176  1    25.18807721848326        129.44366027629718       8.040569334518267        # O
177  177  1    35.26365708357777        129.44366027629718       8.040569334518267        # O
178  178  1    45.338655300059095       129.44366027629718       8.040569334518267        # O
179  179  1    55.414235165153606       129.44366027629718       8.040569334518267        # O
180  180  1    65.48923338163493        129.44366027629718       8.040569334518267        # O
181  181  1    75.56481324672944        129.44366027629718       8.040569334518267        # O
182  182  1    80.60231238363687        132.35250654822886       8.040569334518267        # O
183  183  1    90.67789224873138        132.35250654822886       8.040569334518267        # O
184  184  1    100.75289046521272       132.35250654822886       8.040569334518267        # O
185  185  1    110.82847038764073       132.35250654822886       8.040569334518267        # O
186  186  1    120.90346854678856       132.35250654822886       8.040569334518267        # O
187  187  1    130.9790484692166        132.35250654822886       8.040569334518267        # O
188  188  1    141.05404662836438       132.35250654822886       8.040569334518267        # O
189  189  1    151.1296265507924        132.35250654822886       8.040569334518267        # O
190  190  1    161.20462476727374       132.35250654822886       8.040569334518267        # O
191  191  1    10.075579922428036       132.35250654822886       8.040569334518267        # O
192  192  1    20.150578081575837       132.35250654822886       8.040569334518267        # O
193  193  1    30.226158004003867       132.35250654822886       8.040569334518267        # O
194  194  1    40.301156163151674       132.35250654822886       8.040569334518267        # O
195  195  1    50.37673608557971        132.35250654822886       8.040569334518267        # O
196  196  1    60.451734302061034       132.35250654822886       8.040569334518267        # O
197  197  1    70.52731416715554        132.35250654822886       8.040569334518267        # O
198  198  1    90.67789224873138        138.1701991494257        8.040569334518267        # O
199  199  1    100.75289046521272       138.1701991494257        8.040569334518267        # O
200  200  1    110.82847038764073       138.1701991494257        8.040569334518267        # O
201  201  1    120.90346854678856       138.1701991494257        8.040569334518267        # O
202  202  1    130.9790484692166        138.1701991494257        8.040569334518267        # O
203  203  1    141.05404662836438       138.1701991494257        8.040569334518267        # O
204  204  1    151.1296265507924        138.1701991494257        8.040569334518267        # O
205  205  1    161.20462476727374       138.1701991494257        8.040569334518267        # O
206  206  1    10.075579922428036       138.1701991494257        8.040569334518267        # O
207  207  1    20.150578081575837       138.1701991494257        8.040569334518267        # O
208  208  1    30.226158004003867       138.1701991494257        8.040569334518267        # O
209  209  1    40.301156163151674       138.1701991494257        8.040569334518267        # O
210  210  1    50.37673608557971        138.1701991494257        8.040569334518267        # O
211  211  1    60.451734302061034       138.1701991494257        8.040569334518267        # O
212  212  1    70.52731416715554        138.1701991494257        8.040569334518267        # O
213  213  1    80.60231238363687        138.1701991494257        8.040569334518267        # O
214  214  1    85.63981146321076        1.454423164632604        8.040569334518267        # O
215  215  1    95.71539138563881        1.454423164632604        8.040569334518267        # O
216  216  1    105.7903895447866        1.454423164632604        8.040569334518267        # O
217  217  1    115.86596946721464       1.454423164632604        8.040569334518267        # O
218  218  1    125.94096768369597       1.454423164632604        8.040569334518267        # O
219  219  1    136.01654754879047       1.454423164632604        8.040569334518267        # O
220  220  1    146.0915457652718        1.454423164632604        8.040569334518267        # O
221  221  1    156.16712563036631       1.454423164632604        8.040569334518267        # O
222  222  1    5.037499079573901        1.454423164632604        8.040569334518267        # O
223  223  1    15.113079002001934       1.454423164632604        8.040569334518267        # O
224  224  1    25.18807721848326        1.454423164632604        8.040569334518267        # O
225  225  1    35.26365708357777        1.454423164632604        8.040569334518267        # O
226  226  1    45.338655300059095       1.454423164632604        8.040569334518267        # O
227  227  1    55.414235165153606       1.454423164632604        8.040569334518267        # O
228  228  1    65.48923338163493        1.454423164632604        8.040569334518267        # O
229  229  1    75.56481324672944        1.454423164632604        8.040569334518267        # O
230  230  1    85.63981146321076        7.272115765829495        8.040569334518267        # O
231  231  1    95.71539138563881        7.272115765829495        8.040569334518267        # O
232  232  1    105.7903895447866        7.272115765829495        8.040569334518267        # O
233  233  1    115.86596946721464       7.272115765829495        8.040569334518267        # O
234  234  1    125.94096768369597       7.272115765829495        8.040569334518267        # O
235  235  1    136.01654754879047       7.272115765829495        8.040569334518267        # O
236  236  1    146.0915457652718        7.272115765829495        8.040569334518267        # O
237  237  1    156.16712563036631       7.272115765829495        8.040569334518267        # O
238  238  1    5.037499079573901        7.272115765829495        8.040569334518267        # O
239  239  1    15.113079002001934       7.272115765829495        8.040569334518267        # O
240  240  1    25.18807721848326        7.272115765829495        8.040569334518267        # O
241  241  1    35.26365708357777        7.272115765829495        8.040569334518267        # O
242  242  1    45.338655300059095       7.272115765829495        8.040569334518267        # O
243  243  1    55.414235165153606       7.272115765829495        8.040569334518267        # O
244  244  1    65.48923338163493        7.272115765829495        8.040569334518267        # O
245  245  1    75.56481324672944        7.272115765829495        8.040569334518267        # O
246  246  1    80.60231238363687        10.180962037761178       8.040569334518267        # O
247  247  1    90.67789224873138        10.180962037761178       8.040569334518267        # O
248  248  1    100.75289046521272       10.180962037761178       8.040569334518267        # O
249  249  1    110.82847038764073       10.180962037761178       8.040569334518267        # O
250  250  1    120.90346854678856       10.180962037761178       8.040569334518267        # O
251  251  1    130.9790484692166        10.180962037761178       8.040569334518267        # O
252  252  1    141.05404662836438       10.180962037761178       8.040569334518267        # O
253  253  1    151.1296265507924        10.180962037761178       8.040569334518267        # O
254  254  1    161.20462476727374       10.180962037761178       8.040569334518267        # O
255  255  1    10.075579922428036       10.180962037761178       8.040569334518267        # O
256  256  1    20.150578081575837       10.180962037761178       8.040569334518267        # O
257  257  1    30.226158004003867       10.180962037761178       8.040569334518267        # O
258  258  1    40.301156163151674       10.180962037761178       8.040569334518267        # O
259  259  1    50.37673608557971        10.180962037761178       8.040569334518267        # O
260  260  1    60.451734302061034       10.180962037761178       8.040569334518267        # O
261  261  1    70.52731416715554        10.180962037761178       8.040569334518267        # O
262  262  1    90.67789224873138        15.99865463895807        8.040569334518267        # O
263  263  1    100.75289046521272       15.99865463895807        8.040569334518267        # O
264  264  1    110.82847038764073       15.99865463895807        8.040569334518267        # O
265  265  1    120.90346854678856       15.99865463895807        8.040569334518267        # O
266  266  1    130.9790484692166        15.99865463895807        8.040569334518267        # O
267  267  1    141.05404662836438       15.99865463895807        8.040569334518267        # O
268  268  1    151.1296265507924        15.99865463895807        8.040569334518267        # O
269  269  1    161.20462476727374       15.99865463895807        8.040569334518267        # O
270  270  1    10.075579922428036       15.99865463895807        8.040569334518267        # O
271  271  1    20.150578081575837       15.99865463895807        8.040569334518267        # O
272  272  1    30.226158004003867       15.99865463895807        8.040569334518267        # O
273  273  1    40.301156163151674       15.99865463895807        8.040569334518267        # O
274  274  1    50.37673608557971        15.99865463895807        8.040569334518267        # O
275  275  1    60.451734302061034       15.99865463895807        8.040569334518267        # O
276  276  1    70.52731416715554        15.99865463895807        8.040569334518267        # O
277  277  1    80.60231238363687        15.99865463895807        8.040569334518267        # O
278  278  1    85.63981146321076        18.907500910889752       8.040569334518267        # O
279  279  1    95.71539138563881        18.907500910889752       8.040569334518267        # O
280  280  1    105.7903895447866        18.907500910889752       8.040569334518267        # O
281  281  1    115.86596946721464       18.907500910889752       8.040569334518267        # O
282  282  1    125.94096768369597       18.907500910889752       8.040569334518267        # O
283  283  1    136.01654754879047       18.907500910889752       8.040569334518267        # O
284  284  1    146.0915457652718        18.907500910889752       8.040569334518267        # O
285  285  1    156.16712563036631       18.907500910889752       8.040569334518267        # O
286  286  1    5.037499079573901        18.907500910889752       8.040569334518267        # O
287  287  1    15.113079002001934       18.907500910889752       8.040569334518267        # O
288  288  1    25.18807721848326        18.907500910889752       8.040569334518267        # O
289  289  1    35.26365708357777        18.907500910889752       8.040569334518267        # O
290  290  1    45.338655300059095       18.907500910889752       8.040569334518267        # O
291  291  1    55.414235165153606       18.907500910889752       8.040569334518267        # O
292  292  1    65.48923338163493        18.907500910889752       8.040569334518267        # O
293  293  1    75.56481324672944        18.907500910889752       8.040569334518267        # O
294  294  1    85.63981146321076        24.72519351208664        8.040569334518267        # O
295  295  1    95.71539138563881        24.72519351208664        8.040569334518267        # O
296  296  1    105.7903895447866        24.72519351208664        8.040569334518267        # O
297  297  1    115.86596946721464       24.72519351208664        8.040569334518267        # O
298  298  1    125.94096768369597       24.72519351208664        8.040569334518267        # O
299  299  1    136.01654754879047       24.72519351208664        8.040569334518267        # O
300  300  1    146.0915457652718        24.72519351208664        8.040569334518267        # O
301  301  1    156.16712563036631       24.72519351208664        8.040569334518267        # O
302  302  1    5.037499079573901        24.72519351208664        8.040569334518267        # O
303  303  1    15.113079002001934       24.72519351208664        8.040569334518267        # O
304  304  1    25.18807721848326        24.72519351208664        8.040569334518267        # O
305  305  1    35.26365708357777        24.72519351208664        8.040569334518267        # O
306  306  1    45.338655300059095       24.72519351208664        8.040569334518267        # O
307  307  1    55.414235165153606       24.72519351208664        8.040569334518267        # O
308  308  1    65.48923338163493        24.72519351208664        8.040569334518267        # O
309  309  1    75.56481324672944        24.72519351208664        8.040569334518267        # O
310  310  1    80.60231238363687        27.63403984135185        8.040569334518267        # O
311  311  1    90.67789224873138        27.63403984135185        8.040569334518267        # O
312  312  1    100.75289046521272       27.63403984135185        8.040569334518267        # O
313  313  1    110.82847038764073       27.63403984135185        8.040569334518267        # O
314  314  1    120.90346854678856       27.63403984135185        8.040569334518267        # O