DATA FILE Produced from netmc results (cf David Morley)
1232 atoms
1 atom types
0.00000 61.0434861433314 xlo xhi
0.00000 52.86520973192105 ylo yhi

 Masses

1 12.0000 # Si

 Atoms # molecular

1    1    43.434734074845466       28.127002613778505       0.0                     # C
2    1    45.78262714604188        28.127002613778505       0.0                     # C
3    1    48.130384665418475       28.127002613778505       0.0                     # C
4    1    50.4782777366149         28.127002613778505       0.0                     # C
5    1    52.8260352559915         28.127002613778505       0.0                     # C
6    1    55.17392832718792        28.127002613778505       0.0                     # C
7    1    57.521685846564516       28.127002613778505       0.0                     # C
8    1    59.86957891776093        28.127002613778505       0.0                     # C
9    1    1.1738787596882982       28.127002613778505       0.0                     # C
10   1    3.52177183088472         28.127002613778505       0.0                     # C
11   1    5.869529350261316        28.127002613778505       0.0                     # C
12   1    8.217422421457737        28.127002613778505       0.0                     # C
13   1    10.565179940834335       28.127002613778505       0.0                     # C
14   1    12.913073012030756       28.127002613778505       0.0                     # C
15   1    15.260830531407352       28.127002613778505       0.0                     # C
16   1    17.608723602603774       28.127002613778505       0.0                     # C
17   1    19.95648112198037        28.127002613778505       0.0                     # C
18   1    42.260855315157166       28.804761712905698       0.0                     # C
19   1    44.60874838635358        28.804761712905698       0.0                     # C
20   1    46.956505905730175       28.804761712905698       0.0                     # C
21   1    49.304398976926606       28.804761712905698       0.0                     # C
22   1    51.6521564963032         28.804761712905698       0.0                     # C
23   1    54.00004956749963        28.804761712905698       0.0                     # C
24   1    56.34780708687622        28.804761712905698       0.0                     # C
25   1    58.69570015807263        28.804761712905698       0.0                     # C
26   1    61.04345767744923        28.804761712905698       0.0                     # C
27   1    2.3478930711964217       28.804761712905698       0.0                     # C
28   1    4.695650590573019        28.804761712905698       0.0                     # C
29   1    7.04354366176944         28.804761712905698       0.0                     # C
30   1    9.391301181146037        28.804761712905698       0.0                     # C
31   1    11.739194252342456       28.804761712905698       0.0                     # C
32   1    14.086951771719056       28.804761712905698       0.0                     # C
33   1    16.434844842915474       28.804761712905698       0.0                     # C
34   1    18.782602362292074       28.804761712905698       0.0                     # C
35   1    21.130495433488495       28.804761712905698       0.0                     # C
36   1    42.260855315157166       30.16027991116008        0.0                     # C
37   1    44.60874838635358        30.16027991116008        0.0                     # C
38   1    46.956505905730175       30.16027991116008        0.0                     # C
39   1    49.304398976926606       30.16027991116008        0.0                     # C
40   1    51.6521564963032         30.16027991116008        0.0                     # C
41   1    54.00004956749963        30.16027991116008        0.0                     # C
42   1    56.34780708687622        30.16027991116008        0.0                     # C
43   1    58.69570015807263        30.16027991116008        0.0                     # C
44   1    61.04345767744923        30.16027991116008        0.0                     # C
45   1    2.3478930711964217       30.16027991116008        0.0                     # C
46   1    4.695650590573019        30.16027991116008        0.0                     # C
47   1    7.04354366176944         30.16027991116008        0.0                     # C
48   1    9.391301181146037        30.16027991116008        0.0                     # C
49   1    11.739194252342456       30.16027991116008        0.0                     # C
50   1    14.086951771719056       30.16027991116008        0.0                     # C
51   1    16.434844842915474       30.16027991116008        0.0                     # C
52   1    18.782602362292074       30.16027991116008        0.0                     # C
53   1    21.130495433488495       30.16027991116008        0.0                     # C
54   1    43.434734074845466       30.838039010287282       0.0                     # C
55   1    45.78262714604188        30.838039010287282       0.0                     # C
56   1    48.130384665418475       30.838039010287282       0.0                     # C
57   1    50.4782777366149         30.838039010287282       0.0                     # C
58   1    52.8260352559915         30.838039010287282       0.0                     # C
59   1    55.17392832718792        30.838039010287282       0.0                     # C
60   1    57.521685846564516       30.838039010287282       0.0                     # C
61   1    59.86957891776093        30.838039010287282       0.0                     # C
62   1    1.1738787596882982       30.838039010287282       0.0                     # C
63   1    3.52177183088472         30.838039010287282       0.0                     # C
64   1    5.869529350261316        30.838039010287282       0.0                     # C
65   1    8.217422421457737        30.838039010287282       0.0                     # C
66   1    10.565179940834335       30.838039010287282       0.0                     # C
67   1    12.913073012030756       30.838039010287282       0.0                     # C
68   1    15.260830531407352       30.838039010287282       0.0                     # C
69   1    17.608723602603774       30.838039010287282       0.0                     # C
70   1    19.95648112198037        30.838039010287282       0.0                     # C
71   1    41.086976555468866       32.19355720854166        0.0                     # C
72   1    43.434734074845466       32.19355720854166        0.0                     # C
73   1    45.78262714604188        32.19355720854166        0.0                     # C
74   1    48.130384665418475       32.19355720854166        0.0                     # C
75   1    50.4782777366149         32.19355720854166        0.0                     # C
76   1    52.8260352559915         32.19355720854166        0.0                     # C
77   1    55.17392832718792        32.19355720854166        0.0                     # C
78   1    57.521685846564516       32.19355720854166        0.0                     # C
79   1    59.86957891776093        32.19355720854166        0.0                     # C
80   1    1.1738787596882982       32.19355720854166        0.0                     # C
81   1    3.52177183088472         32.19355720854166        0.0                     # C
82   1    5.869529350261316        32.19355720854166        0.0                     # C
83   1    8.217422421457737        32.19355720854166        0.0                     # C
84   1    10.565179940834335       32.19355720854166        0.0                     # C
85   1    12.913073012030756       32.19355720854166        0.0                     # C
86   1    15.260830531407352       32.19355720854166        0.0                     # C
87   1    17.608723602603774       32.19355720854166        0.0                     # C
88   1    19.95648112198037        32.19355720854166        0.0                     # C
89   1    22.30437419317679        32.19355720854166        0.0                     # C
90   1    42.260855315157166       32.871316307668856       0.0                     # C
91   1    44.60874838635358        32.871316307668856       0.0                     # C
92   1    46.956505905730175       32.871316307668856       0.0                     # C
93   1    49.304398976926606       32.871316307668856       0.0                     # C
94   1    51.6521564963032         32.871316307668856       0.0                     # C
95   1    54.00004956749963        32.871316307668856       0.0                     # C
96   1    56.34780708687622        32.871316307668856       0.0                     # C
97   1    58.69570015807263        32.871316307668856       0.0                     # C
98   1    61.04345767744923        32.871316307668856       0.0                     # C
99   1    2.3478930711964217       32.871316307668856       0.0                     # C
100  1    4.695650590573019        32.871316307668856       0.0                     # C
101  1    7.04354366176944         32.871316307668856       0.0                     # C
102  1    9.391301181146037        32.871316307668856       0.0                     # C
103  1    11.739194252342456       32.871316307668856       0.0                     # C
104  1    14.086951771719056       32.871316307668856       0.0                     # C
105  1    16.434844842915474       32.871316307668856       0.0                     # C
106  1    18.782602362292074       32.871316307668856       0.0                     # C
107  1    21.130495433488495       32.871316307668856       0.0                     # C
108  1    39.913097795780565       34.22683450592324        0.0                     # C
109  1    42.260855315157166       34.22683450592324        0.0                     # C
110  1    44.60874838635358        34.22683450592324        0.0                     # C
111  1    46.956505905730175       34.22683450592324        0.0                     # C
112  1    49.304398976926606       34.22683450592324        0.0                     # C
113  1    51.6521564963032         34.22683450592324        0.0                     # C
114  1    54.00004956749963        34.22683450592324        0.0                     # C
115  1    56.34780708687622        34.22683450592324        0.0                     # C
116  1    58.69570015807263        34.22683450592324        0.0                     # C
117  1    61.04345767744923        34.22683450592324        0.0                     # C
118  1    2.3478930711964217       34.22683450592324        0.0                     # C
119  1    4.695650590573019        34.22683450592324        0.0                     # C
120  1    7.04354366176944         34.22683450592324        0.0                     # C
121  1    9.391301181146037        34.22683450592324        0.0                     # C
122  1    11.739194252342456       34.22683450592324        0.0                     # C
123  1    14.086951771719056       34.22683450592324        0.0                     # C
124  1    16.434844842915474       34.22683450592324        0.0                     # C
125  1    18.782602362292074       34.22683450592324        0.0                     # C
126  1    21.130495433488495       34.22683450592324        0.0                     # C
127  1    23.478252952865088       34.22683450592324        0.0                     # C
128  1    41.086976555468866       34.90459360505044        0.0                     # C
129  1    43.434734074845466       34.90459360505044        0.0                     # C
130  1    45.78262714604188        34.90459360505044        0.0                     # C
131  1    48.130384665418475       34.90459360505044        0.0                     # C
132  1    50.4782777366149         34.90459360505044        0.0                     # C
133  1    52.8260352559915         34.90459360505044        0.0                     # C
134  1    55.17392832718792        34.90459360505044        0.0                     # C
135  1    57.521685846564516       34.90459360505044        0.0                     # C
136  1    59.86957891776093        34.90459360505044        0.0                     # C
137  1    1.1738787596882982       34.90459360505044        0.0                     # C
138  1    3.52177183088472         34.90459360505044        0.0                     # C
139  1    5.869529350261316        34.90459360505044        0.0                     # C
140  1    8.217422421457737        34.90459360505044        0.0                     # C
141  1    10.565179940834335       34.90459360505044        0.0                     # C
142  1    12.913073012030756       34.90459360505044        0.0                     # C
143  1    15.260830531407352       34.90459360505044        0.0                     # C
144  1    17.608723602603774       34.90459360505044        0.0                     # C
145  1    19.95648112198037        34.90459360505044        0.0                     # C
146  1    22.30437419317679        34.90459360505044        0.0                     # C
147  1    38.73908348427244        36.260111803304824       0.0                     # C
148  1    41.086976555468866       36.260111803304824       0.0                     # C
149  1    43.434734074845466       36.260111803304824       0.0                     # C
150  1    45.78262714604188        36.260111803304824       0.0                     # C
151  1    48.130384665418475       36.260111803304824       0.0                     # C
152  1    50.4782777366149         36.260111803304824       0.0                     # C
153  1    52.8260352559915         36.260111803304824       0.0                     # C
154  1    55.17392832718792        36.260111803304824       0.0                     # C
155  1    57.521685846564516       36.260111803304824       0.0                     # C
156  1    59.86957891776093        36.260111803304824       0.0                     # C
157  1    1.1738787596882982       36.260111803304824       0.0                     # C
158  1    3.52177183088472         36.260111803304824       0.0                     # C
159  1    5.869529350261316        36.260111803304824       0.0                     # C
160  1    8.217422421457737        36.260111803304824       0.0                     # C
161  1    10.565179940834335       36.260111803304824       0.0                     # C
162  1    12.913073012030756       36.260111803304824       0.0                     # C
163  1    15.260830531407352       36.260111803304824       0.0                     # C
164  1    17.608723602603774       36.260111803304824       0.0                     # C
165  1    19.95648112198037        36.260111803304824       0.0                     # C
166  1    22.30437419317679        36.260111803304824       0.0                     # C
167  1    24.652131712553384       36.260111803304824       0.0                     # C
168  1    39.913097795780565       36.93787090243201        0.0                     # C
169  1    42.260855315157166       36.93787090243201        0.0                     # C
170  1    44.60874838635358        36.93787090243201        0.0                     # C
171  1    46.956505905730175       36.93787090243201        0.0                     # C
172  1    49.304398976926606       36.93787090243201        0.0                     # C
173  1    51.6521564963032         36.93787090243201        0.0                     # C
174  1    54.00004956749963        36.93787090243201        0.0                     # C
175  1    56.34780708687622        36.93787090243201        0.0                     # C
176  1    58.69570015807263        36.93787090243201        0.0                     # C
177  1    61.04345767744923        36.93787090243201        0.0                     # C
178  1    2.3478930711964217       36.93787090243201        0.0                     # C
179  1    4.695650590573019        36.93787090243201        0.0                     # C
180  1    7.04354366176944         36.93787090243201        0.0                     # C
181  1    9.391301181146037        36.93787090243201        0.0                     # C
182  1    11.739194252342456       36.93787090243201        0.0                     # C
183  1    14.086951771719056       36.93787090243201        0.0                     # C
184  1    16.434844842915474       36.93787090243201        0.0                     # C
185  1    18.782602362292074       36.93787090243201        0.0                     # C
186  1    21.130495433488495       36.93787090243201        0.0                     # C
187  1    23.478252952865088       36.93787090243201        0.0                     # C
188  1    37.56520472458415        38.2933891006864         0.0                     # C
189  1    39.913097795780565       38.2933891006864         0.0                     # C
190  1    42.260855315157166       38.2933891006864         0.0                     # C
191  1    44.60874838635358        38.2933891006864         0.0                     # C
192  1    46.956505905730175       38.2933891006864         0.0                     # C
193  1    49.304398976926606       38.2933891006864         0.0                     # C
194  1    51.6521564963032         38.2933891006864         0.0                     # C
195  1    54.00004956749963        38.2933891006864         0.0                     # C
196  1    56.34780708687622        38.2933891006864         0.0                     # C
197  1    58.69570015807263        38.2933891006864         0.0                     # C
198  1    61.04345767744923        38.2933891006864         0.0                     # C
199  1    2.3478930711964217       38.2933891006864         0.0                     # C
200  1    4.695650590573019        38.2933891006864         0.0                     # C
201  1    7.04354366176944         38.2933891006864         0.0                     # C
202  1    9.391301181146037        38.2933891006864         0.0                     # C
203  1    11.739194252342456       38.2933891006864         0.0                     # C
204  1    14.086951771719056       38.2933891006864         0.0                     # C
205  1    16.434844842915474       38.2933891006864         0.0                     # C
206  1    18.782602362292074       38.2933891006864         0.0                     # C
207  1    21.130495433488495       38.2933891006864         0.0                     # C
208  1    23.478252952865088       38.2933891006864         0.0                     # C
209  1    25.82614602406151        38.2933891006864         0.0                     # C
210  1    31.69567537432283        38.97114819981359        0.0                     # C
211  1    34.043432893699425       38.97114819981359        0.0                     # C
212  1    36.39132596489585        38.97114819981359        0.0                     # C
213  1    38.73908348427244        38.97114819981359        0.0                     # C
214  1    41.086976555468866       38.97114819981359        0.0                     # C
215  1    43.434734074845466       38.97114819981359        0.0                     # C
216  1    45.78262714604188        38.97114819981359        0.0                     # C
217  1    48.130384665418475       38.97114819981359        0.0                     # C
218  1    50.4782777366149         38.97114819981359        0.0                     # C
219  1    52.8260352559915         38.97114819981359        0.0                     # C
220  1    55.17392832718792        38.97114819981359        0.0                     # C
221  1    57.521685846564516       38.97114819981359        0.0                     # C
222  1    59.86957891776093        38.97114819981359        0.0                     # C
223  1    1.1738787596882982       38.97114819981359        0.0                     # C
224  1    3.52177183088472         38.97114819981359        0.0                     # C
225  1    5.869529350261316        38.97114819981359        0.0                     # C
226  1    8.217422421457737        38.97114819981359        0.0                     # C
227  1    10.565179940834335       38.97114819981359        0.0                     # C
228  1    12.913073012030756       38.97114819981359        0.0                     # C
229  1    15.260830531407352       38.97114819981359        0.0                     # C
230  1    17.608723602603774       38.97114819981359        0.0                     # C
231  1    19.95648112198037        38.97114819981359        0.0                     # C
232  1    22.30437419317679        38.97114819981359        0.0                     # C
233  1    24.652131712553384       38.97114819981359        0.0                     # C
234  1    27.000024783749815       38.97114819981359        0.0                     # C
235  1    29.347782303126408       38.97114819981359        0.0                     # C
236  1    31.69567537432283        40.32666639806798        0.0                     # C
237  1    34.043432893699425       40.32666639806798        0.0                     # C
238  1    36.39132596489585        40.32666639806798        0.0                     # C
239  1    38.73908348427244        40.32666639806798        0.0                     # C
240  1    41.086976555468866       40.32666639806798        0.0                     # C
241  1    43.434734074845466       40.32666639806798        0.0                     # C
242  1    45.78262714604188        40.32666639806798        0.0                     # C
243  1    48.130384665418475       40.32666639806798        0.0                     # C
244  1    50.4782777366149         40.32666639806798        0.0                     # C
245  1    52.8260352559915         40.32666639806798        0.0                     # C
246  1    55.17392832718792        40.32666639806798        0.0                     # C
247  1    57.521685846564516       40.32666639806798        0.0                     # C
248  1    59.86957891776093        40.32666639806798        0.0                     # C
249  1    1.1738787596882982       40.32666639806798        0.0                     # C
250  1    3.52177183088472         40.32666639806798        0.0                     # C
251  1    5.869529350261316        40.32666639806798        0.0                     # C
252  1    8.217422421457737        40.32666639806798        0.0                     # C
253  1    10.565179940834335       40.32666639806798        0.0                     # C
254  1    12.913073012030756       40.32666639806798        0.0                     # C
255  1    15.260830531407352       40.32666639806798        0.0                     # C
256  1    17.608723602603774       40.32666639806798        0.0                     # C
257  1    19.95648112198037        40.32666639806798        0.0                     # C
258  1    22.30437419317679        40.32666639806798        0.0                     # C
259  1    24.652131712553384       40.32666639806798        0.0                     # C
260  1    27.000024783749815       40.32666639806798        0.0                     # C
261  1    29.347782303126408       40.32666639806798        0.0                     # C
262  1    30.52179661463453        41.00442549719517        0.0                     # C
263  1    32.869554134011125       41.00442549719517        0.0                     # C
264  1    35.21744720520755        41.00442549719517        0.0                     # C
265  1    37.56520472458415        41.00442549719517        0.0                     # C
266  1    39.913097795780565       41.00442549719517        0.0                     # C
267  1    42.260855315157166       41.00442549719517        0.0                     # C
268  1    44.60874838635358        41.00442549719517        0.0                     # C
269  1    46.956505905730175       41.00442549719517        0.0                     # C
270  1    49.304398976926606       41.00442549719517        0.0                     # C
271  1    51.6521564963032         41.00442549719517        0.0                     # C
272  1    54.00004956749963        41.00442549719517        0.0                     # C
273  1    56.34780708687622        41.00442549719517        0.0                     # C
274  1    58.69570015807263        41.00442549719517        0.0                     # C
275  1    61.04345767744923        41.00442549719517        0.0                     # C
276  1    2.3478930711964217       41.00442549719517        0.0                     # C
277  1    4.695650590573019        41.00442549719517        0.0                     # C
278  1    7.04354366176944         41.00442549719517        0.0                     # C
279  1    9.391301181146037        41.00442549719517        0.0                     # C
280  1    11.739194252342456       41.00442549719517        0.0                     # C
281  1    14.086951771719056       41.00442549719517        0.0                     # C
282  1    16.434844842915474       41.00442549719517        0.0                     # C
283  1    18.782602362292074       41.00442549719517        0.0                     # C
284  1    21.130495433488495       41.00442549719517        0.0                     # C
285  1    23.478252952865088       41.00442549719517        0.0                     # C
286  1    25.82614602406151        41.00442549719517        0.0                     # C
287  1    28.17390354343811        41.00442549719517        0.0                     # C
288  1    32.869554134011125       42.35994369544956        0.0                     # C
289  1    35.21744720520755        42.35994369544956        0.0                     # C
290  1    37.56520472458415        42.35994369544956        0.0                     # C
291  1    39.913097795780565       42.35994369544956        0.0                     # C
292  1    42.260855315157166       42.35994369544956        0.0                     # C
293  1    44.60874838635358        42.35994369544956        0.0                     # C
294  1    46.956505905730175       42.35994369544956        0.0                     # C
295  1    49.304398976926606       42.35994369544956        0.0                     # C
296  1    51.6521564963032         42.35994369544956        0.0                     # C
297  1    54.00004956749963        42.35994369544956        0.0                     # C
298  1    56.34780708687622        42.35994369544956        0.0                     # C
299  1    58.69570015807263        42.35994369544956        0.0                     # C
300  1    61.04345767744923        42.35994369544956        0.0                     # C
301  1    2.3478930711964217       42.35994369544956        0.0                     # C
302  1    4.695650590573019        42.35994369544956        0.0                     # C
303  1    7.04354366176944         42.35994369544956        0.0                     # C
304  1    9.391301181146037        42.35994369544956        0.0                     # C
305  1    11.739194252342456       42.35994369544956        0.0                     # C
306  1    14.086951771719056       42.35994369544956        0.0                     # C
307  1    16.434844842915474       42.35994369544956        0.0                     # C
308  1    18.782602362292074       42.35994369544956        0.0                     # C
309  1    21.130495433488495       42.35994369544956        0.0                     # C
310  1    23.478252952865088       42.35994369544956        0.0                     # C
311  1    25.82614602406151        42.35994369544956        0.0                     # C
312  1    28.17390354343811        42.35994369544956        0.0                     # C
313  1    30.52179661463453        42.35994369544956        0.0                     # C
314  1    31.69567537432283        43.03770279457675        0.0                     # C
315  1    34.043432893699425       43.03770279457675        0.0                     # C
316  1    36.39132596489585        43.03770279457675        0.0                     # C
317  1    38.73908348427244        43.03770279457675        0.0                     # C
318  1    41.086976555468866       43.03770279457675        0.0                     # C
319  1    43.434734074845466       43.03770279457675        0.0                     # C
320  1    45.78262714604188        43.03770279457675        0.0                     # C
321  1    48.130384665418475       43.03770279457675        0.0                     # C
322  1    50.4782777366149         43.03770279457675        0.0                     # C
323  1    52.8260352559915         43.03770279457675        0.0                     # C
324  1    55.17392832718792        43.03770279457675        0.0                     # C
325  1    57.521685846564516       43.03770279457675        0.0                     # C
326  1    59.86957891776093        43.03770279457675        0.0                     # C
327  1    1.1738787596882982       43.03770279457675        0.0                     # C
328  1    3.52177183088472         43.03770279457675        0.0                     # C
329  1    5.869529350261316        43.03770279457675        0.0                     # C
330  1    8.217422421457737        43.03770279457675        0.0                     # C
331  1    10.565179940834335       43.03770279457675        0.0                     # C
332  1    12.913073012030756       43.03770279457675        0.0                     # C
333  1    15.260830531407352       43.03770279457675        0.0                     # C
334  1    17.608723602603774       43.03770279457675        0.0                     # C
335  1    19.95648112198037        43.03770279457675        0.0                     # C
336  1    22.30437419317679        43.03770279457675        0.0                     # C
337  1    24.652131712553384       43.03770279457675        0.0                     # C
338  1    27.000024783749815       43.03770279457675        0.0                     # C