DATA FILE Produced from netmc results (cf David Morley)
1232 atoms
1848 bonds
3696 angles
0 dihedrals
0 impropers
1 atom types
1 bond types
1 angle types
0 dihedral types
0 improper types
0.00000 46.23798697 xlo xhi
0.00000 40.05376949 ylo yhi

# Pair Coeffs
#
# 1  Si

# Bond Coeffs
# 
# 1  Si-Si

# Angle Coeffs
# 
# 1  Si-Si-Si

 Masses

1 32.01000 # Si

 Atoms # molecular

1    1    1    32.9000651               21.31065941              0.0                     # Si
2    2    1    34.67849973              21.31065941              0.0                     # Si
3    3    1    36.45683167              21.31065941              0.0                     # Si
4    4    1    38.2352663               21.31065941              0.0                     # Si
5    5    1    40.01359824              21.31065941              0.0                     # Si
6    6    1    41.79203287              21.31065941              0.0                     # Si
7    7    1    43.57036481              21.31065941              0.0                     # Si
8    8    1    45.34879944              21.31065941              0.0                     # Si
9    9    1    0.88916597               21.31065941              0.0                     # Si
10   10   1    2.6676006                21.31065941              0.0                     # Si
11   11   1    4.44593254               21.31065941              0.0                     # Si
12   12   1    6.22436717               21.31065941              0.0                     # Si
13   13   1    8.00269911               21.31065941              0.0                     # Si
14   14   1    9.78113374               21.31065941              0.0                     # Si
15   15   1    11.55946568              21.31065941              0.0                     # Si
16   16   1    13.33790031              21.31065941              0.0                     # Si
17   17   1    15.11623225              21.31065941              0.0                     # Si
18   18   1    32.01089913              21.82416927              0.0                     # Si
19   19   1    33.78933375              21.82416927              0.0                     # Si
20   20   1    35.5676657               21.82416927              0.0                     # Si
21   21   1    37.34610032              21.82416927              0.0                     # Si
22   22   1    39.12443227              21.82416927              0.0                     # Si
23   23   1    40.90286689              21.82416927              0.0                     # Si
24   24   1    42.68119884              21.82416927              0.0                     # Si
25   25   1    44.45963346              21.82416927              0.0                     # Si
26   26   1    46.23796541              21.82416927              0.0                     # Si
27   27   1    1.77843462               21.82416927              0.0                     # Si
28   28   1    3.55676657               21.82416927              0.0                     # Si
29   29   1    5.33520119               21.82416927              0.0                     # Si
30   30   1    7.11353314               21.82416927              0.0                     # Si
31   31   1    8.89196776               21.82416927              0.0                     # Si
32   32   1    10.67029971              21.82416927              0.0                     # Si
33   33   1    12.44873433              21.82416927              0.0                     # Si
34   34   1    14.22706628              21.82416927              0.0                     # Si
35   35   1    16.0055009               21.82416927              0.0                     # Si
36   36   1    32.01089913              22.851189                0.0                     # Si
37   37   1    33.78933375              22.851189                0.0                     # Si
38   38   1    35.5676657               22.851189                0.0                     # Si
39   39   1    37.34610032              22.851189                0.0                     # Si
40   40   1    39.12443227              22.851189                0.0                     # Si
41   41   1    40.90286689              22.851189                0.0                     # Si
42   42   1    42.68119884              22.851189                0.0                     # Si
43   43   1    44.45963346              22.851189                0.0                     # Si
44   44   1    46.23796541              22.851189                0.0                     # Si
45   45   1    1.77843462               22.851189                0.0                     # Si
46   46   1    3.55676657               22.851189                0.0                     # Si
47   47   1    5.33520119               22.851189                0.0                     # Si
48   48   1    7.11353314               22.851189                0.0                     # Si
49   49   1    8.89196776               22.851189                0.0                     # Si
50   50   1    10.67029971              22.851189                0.0                     # Si
51   51   1    12.44873433              22.851189                0.0                     # Si
52   52   1    14.22706628              22.851189                0.0                     # Si
53   53   1    16.0055009               22.851189                0.0                     # Si
54   54   1    32.9000651               23.36469887              0.0                     # Si
55   55   1    34.67849973              23.36469887              0.0                     # Si
56   56   1    36.45683167              23.36469887              0.0                     # Si
57   57   1    38.2352663               23.36469887              0.0                     # Si
58   58   1    40.01359824              23.36469887              0.0                     # Si
59   59   1    41.79203287              23.36469887              0.0                     # Si
60   60   1    43.57036481              23.36469887              0.0                     # Si
61   61   1    45.34879944              23.36469887              0.0                     # Si
62   62   1    0.88916597               23.36469887              0.0                     # Si
63   63   1    2.6676006                23.36469887              0.0                     # Si
64   64   1    4.44593254               23.36469887              0.0                     # Si
65   65   1    6.22436717               23.36469887              0.0                     # Si
66   66   1    8.00269911               23.36469887              0.0                     # Si
67   67   1    9.78113374               23.36469887              0.0                     # Si
68   68   1    11.55946568              23.36469887              0.0                     # Si
69   69   1    13.33790031              23.36469887              0.0                     # Si
70   70   1    15.11623225              23.36469887              0.0                     # Si
71   71   1    31.12173316              24.3917186               0.0                     # Si
72   72   1    32.9000651               24.3917186               0.0                     # Si
73   73   1    34.67849973              24.3917186               0.0                     # Si
74   74   1    36.45683167              24.3917186               0.0                     # Si
75   75   1    38.2352663               24.3917186               0.0                     # Si
76   76   1    40.01359824              24.3917186               0.0                     # Si
77   77   1    41.79203287              24.3917186               0.0                     # Si
78   78   1    43.57036481              24.3917186               0.0                     # Si
79   79   1    45.34879944              24.3917186               0.0                     # Si
80   80   1    0.88916597               24.3917186               0.0                     # Si
81   81   1    2.6676006                24.3917186               0.0                     # Si
82   82   1    4.44593254               24.3917186               0.0                     # Si
83   83   1    6.22436717               24.3917186               0.0                     # Si
84   84   1    8.00269911               24.3917186               0.0                     # Si
85   85   1    9.78113374               24.3917186               0.0                     # Si
86   86   1    11.55946568              24.3917186               0.0                     # Si
87   87   1    13.33790031              24.3917186               0.0                     # Si
88   88   1    15.11623225              24.3917186               0.0                     # Si
89   89   1    16.89466688              24.3917186               0.0                     # Si
90   90   1    32.01089913              24.90522846              0.0                     # Si
91   91   1    33.78933375              24.90522846              0.0                     # Si
92   92   1    35.5676657               24.90522846              0.0                     # Si
93   93   1    37.34610032              24.90522846              0.0                     # Si
94   94   1    39.12443227              24.90522846              0.0                     # Si
95   95   1    40.90286689              24.90522846              0.0                     # Si
96   96   1    42.68119884              24.90522846              0.0                     # Si
97   97   1    44.45963346              24.90522846              0.0                     # Si
98   98   1    46.23796541              24.90522846              0.0                     # Si
99   99   1    1.77843462               24.90522846              0.0                     # Si
100  100  1    3.55676657               24.90522846              0.0                     # Si
101  101  1    5.33520119               24.90522846              0.0                     # Si
102  102  1    7.11353314               24.90522846              0.0                     # Si
103  103  1    8.89196776               24.90522846              0.0                     # Si
104  104  1    10.67029971              24.90522846              0.0                     # Si
105  105  1    12.44873433              24.90522846              0.0                     # Si
106  106  1    14.22706628              24.90522846              0.0                     # Si
107  107  1    16.0055009               24.90522846              0.0                     # Si
108  108  1    30.23256718              25.93224819              0.0                     # Si
109  109  1    32.01089913              25.93224819              0.0                     # Si
110  110  1    33.78933375              25.93224819              0.0                     # Si
111  111  1    35.5676657               25.93224819              0.0                     # Si
112  112  1    37.34610032              25.93224819              0.0                     # Si
113  113  1    39.12443227              25.93224819              0.0                     # Si
114  114  1    40.90286689              25.93224819              0.0                     # Si
115  115  1    42.68119884              25.93224819              0.0                     # Si
116  116  1    44.45963346              25.93224819              0.0                     # Si
117  117  1    46.23796541              25.93224819              0.0                     # Si
118  118  1    1.77843462               25.93224819              0.0                     # Si
119  119  1    3.55676657               25.93224819              0.0                     # Si
120  120  1    5.33520119               25.93224819              0.0                     # Si
121  121  1    7.11353314               25.93224819              0.0                     # Si
122  122  1    8.89196776               25.93224819              0.0                     # Si
123  123  1    10.67029971              25.93224819              0.0                     # Si
124  124  1    12.44873433              25.93224819              0.0                     # Si
125  125  1    14.22706628              25.93224819              0.0                     # Si
126  126  1    16.0055009               25.93224819              0.0                     # Si
127  127  1    17.78383285              25.93224819              0.0                     # Si
128  128  1    31.12173316              26.44575806              0.0                     # Si
129  129  1    32.9000651               26.44575806              0.0                     # Si
130  130  1    34.67849973              26.44575806              0.0                     # Si
131  131  1    36.45683167              26.44575806              0.0                     # Si
132  132  1    38.2352663               26.44575806              0.0                     # Si
133  133  1    40.01359824              26.44575806              0.0                     # Si
134  134  1    41.79203287              26.44575806              0.0                     # Si
135  135  1    43.57036481              26.44575806              0.0                     # Si
136  136  1    45.34879944              26.44575806              0.0                     # Si
137  137  1    0.88916597               26.44575806              0.0                     # Si
138  138  1    2.6676006                26.44575806              0.0                     # Si
139  139  1    4.44593254               26.44575806              0.0                     # Si
140  140  1    6.22436717               26.44575806              0.0                     # Si
141  141  1    8.00269911               26.44575806              0.0                     # Si
142  142  1    9.78113374               26.44575806              0.0                     # Si
143  143  1    11.55946568              26.44575806              0.0                     # Si
144  144  1    13.33790031              26.44575806              0.0                     # Si
145  145  1    15.11623225              26.44575806              0.0                     # Si
146  146  1    16.89466688              26.44575806              0.0                     # Si
147  147  1    29.34329853              27.47277779              0.0                     # Si
148  148  1    31.12173316              27.47277779              0.0                     # Si
149  149  1    32.9000651               27.47277779              0.0                     # Si
150  150  1    34.67849973              27.47277779              0.0                     # Si
151  151  1    36.45683167              27.47277779              0.0                     # Si
152  152  1    38.2352663               27.47277779              0.0                     # Si
153  153  1    40.01359824              27.47277779              0.0                     # Si
154  154  1    41.79203287              27.47277779              0.0                     # Si
155  155  1    43.57036481              27.47277779              0.0                     # Si
156  156  1    45.34879944              27.47277779              0.0                     # Si
157  157  1    0.88916597               27.47277779              0.0                     # Si
158  158  1    2.6676006                27.47277779              0.0                     # Si
159  159  1    4.44593254               27.47277779              0.0                     # Si
160  160  1    6.22436717               27.47277779              0.0                     # Si
161  161  1    8.00269911               27.47277779              0.0                     # Si
162  162  1    9.78113374               27.47277779              0.0                     # Si
163  163  1    11.55946568              27.47277779              0.0                     # Si
164  164  1    13.33790031              27.47277779              0.0                     # Si
165  165  1    15.11623225              27.47277779              0.0                     # Si
166  166  1    16.89466688              27.47277779              0.0                     # Si
167  167  1    18.67299882              27.47277779              0.0                     # Si
168  168  1    30.23256718              27.98628765              0.0                     # Si
169  169  1    32.01089913              27.98628765              0.0                     # Si
170  170  1    33.78933375              27.98628765              0.0                     # Si
171  171  1    35.5676657               27.98628765              0.0                     # Si
172  172  1    37.34610032              27.98628765              0.0                     # Si
173  173  1    39.12443227              27.98628765              0.0                     # Si
174  174  1    40.90286689              27.98628765              0.0                     # Si
175  175  1    42.68119884              27.98628765              0.0                     # Si
176  176  1    44.45963346              27.98628765              0.0                     # Si
177  177  1    46.23796541              27.98628765              0.0                     # Si
178  178  1    1.77843462               27.98628765              0.0                     # Si
179  179  1    3.55676657               27.98628765              0.0                     # Si
180  180  1    5.33520119               27.98628765              0.0                     # Si
181  181  1    7.11353314               27.98628765              0.0                     # Si
182  182  1    8.89196776               27.98628765              0.0                     # Si
183  183  1    10.67029971              27.98628765              0.0                     # Si
184  184  1    12.44873433              27.98628765              0.0                     # Si
185  185  1    14.22706628              27.98628765              0.0                     # Si
186  186  1    16.0055009               27.98628765              0.0                     # Si
187  187  1    17.78383285              27.98628765              0.0                     # Si
188  188  1    28.45413256              29.01330739              0.0                     # Si
189  189  1    30.23256718              29.01330739              0.0                     # Si
190  190  1    32.01089913              29.01330739              0.0                     # Si
191  191  1    33.78933375              29.01330739              0.0                     # Si
192  192  1    35.5676657               29.01330739              0.0                     # Si
193  193  1    37.34610032              29.01330739              0.0                     # Si
194  194  1    39.12443227              29.01330739              0.0                     # Si
195  195  1    40.90286689              29.01330739              0.0                     # Si
196  196  1    42.68119884              29.01330739              0.0                     # Si
197  197  1    44.45963346              29.01330739              0.0                     # Si
198  198  1    46.23796541              29.01330739              0.0                     # Si
199  199  1    1.77843462               29.01330739              0.0                     # Si
200  200  1    3.55676657               29.01330739              0.0                     # Si
201  201  1    5.33520119               29.01330739              0.0                     # Si
202  202  1    7.11353314               29.01330739              0.0                     # Si
203  203  1    8.89196776               29.01330739              0.0                     # Si
204  204  1    10.67029971              29.01330739              0.0                     # Si
205  205  1    12.44873433              29.01330739              0.0                     # Si
206  206  1    14.22706628              29.01330739              0.0                     # Si
207  207  1    16.0055009               29.01330739              0.0                     # Si
208  208  1    17.78383285              29.01330739              0.0                     # Si
209  209  1    19.56226747              29.01330739              0.0                     # Si
210  210  1    24.00820002              29.52681725              0.0                     # Si
211  211  1    25.78653196              29.52681725              0.0                     # Si
212  212  1    27.56496659              29.52681725              0.0                     # Si
213  213  1    29.34329853              29.52681725              0.0                     # Si
214  214  1    31.12173316              29.52681725              0.0                     # Si
215  215  1    32.9000651               29.52681725              0.0                     # Si
216  216  1    34.67849973              29.52681725              0.0                     # Si
217  217  1    36.45683167              29.52681725              0.0                     # Si
218  218  1    38.2352663               29.52681725              0.0                     # Si
219  219  1    40.01359824              29.52681725              0.0                     # Si
220  220  1    41.79203287              29.52681725              0.0                     # Si
221  221  1    43.57036481              29.52681725              0.0                     # Si
222  222  1    45.34879944              29.52681725              0.0                     # Si
223  223  1    0.88916597               29.52681725              0.0                     # Si
224  224  1    2.6676006                29.52681725              0.0                     # Si
225  225  1    4.44593254               29.52681725              0.0                     # Si
226  226  1    6.22436717               29.52681725              0.0                     # Si
227  227  1    8.00269911               29.52681725              0.0                     # Si
228  228  1    9.78113374               29.52681725              0.0                     # Si
229  229  1    11.55946568              29.52681725              0.0                     # Si
230  230  1    13.33790031              29.52681725              0.0                     # Si
231  231  1    15.11623225              29.52681725              0.0                     # Si
232  232  1    16.89466688              29.52681725              0.0                     # Si
233  233  1    18.67299882              29.52681725              0.0                     # Si
234  234  1    20.45143345              29.52681725              0.0                     # Si
235  235  1    22.22976539              29.52681725              0.0                     # Si
236  236  1    24.00820002              30.55383698              0.0                     # Si
237  237  1    25.78653196              30.55383698              0.0                     # Si
238  238  1    27.56496659              30.55383698              0.0                     # Si
239  239  1    29.34329853              30.55383698              0.0                     # Si
240  240  1    31.12173316              30.55383698              0.0                     # Si
241  241  1    32.9000651               30.55383698              0.0                     # Si
242  242  1    34.67849973              30.55383698              0.0                     # Si
243  243  1    36.45683167              30.55383698              0.0                     # Si
244  244  1    38.2352663               30.55383698              0.0                     # Si
245  245  1    40.01359824              30.55383698              0.0                     # Si
246  246  1    41.79203287              30.55383698              0.0                     # Si
247  247  1    43.57036481              30.55383698              0.0                     # Si
248  248  1    45.34879944              30.55383698              0.0                     # Si
249  249  1    0.88916597               30.55383698              0.0                     # Si
250  250  1    2.6676006                30.55383698              0.0                     # Si
251  251  1    4.44593254               30.55383698              0.0                     # Si
252  252  1    6.22436717               30.55383698              0.0                     # Si
253  253  1    8.00269911               30.55383698              0.0                     # Si
254  254  1    9.78113374               30.55383698              0.0                     # Si
255  255  1    11.55946568              30.55383698              0.0                     # Si
256  256  1    13.33790031              30.55383698              0.0                     # Si
257  257  1    15.11623225              30.55383698              0.0                     # Si
258  258  1    16.89466688              30.55383698              0.0                     # Si
259  259  1    18.67299882              30.55383698              0.0                     # Si
260  260  1    20.45143345              30.55383698              0.0                     # Si
261  261  1    22.22976539              30.55383698              0.0                     # Si
262  262  1    23.11903404              31.06734685              0.0                     # Si
263  263  1    24.89736599              31.06734685              0.0                     # Si
264  264  1    26.67580061              31.06734685              0.0                     # Si
265  265  1    28.45413256              31.06734685              0.0                     # Si
266  266  1    30.23256718              31.06734685              0.0                     # Si
267  267  1    32.01089913              31.06734685              0.0                     # Si
268  268  1    33.78933375              31.06734685              0.0                     # Si
269  269  1    35.5676657               31.06734685              0.0                     # Si
270  270  1    37.34610032              31.06734685              0.0                     # Si
271  271  1    39.12443227              31.06734685              0.0                     # Si
272  272  1    40.90286689              31.06734685              0.0                     # Si
273  273  1    42.68119884              31.06734685              0.0                     # Si
274  274  1    44.45963346              31.06734685              0.0                     # Si
275  275  1    46.23796541              31.06734685              0.0                     # Si
276  276  1    1.77843462               31.06734685              0.0                     # Si
277  277  1    3.55676657               31.06734685              0.0                     # Si
278  278  1    5.33520119               31.06734685              0.0                     # Si
279  279  1    7.11353314               31.06734685              0.0                     # Si
280  280  1    8.89196776               31.06734685              0.0                     # Si
281  281  1    10.67029971              31.06734685              0.0                     # Si
282  282  1    12.44873433              31.06734685              0.0                     # Si
283  283  1    14.22706628              31.06734685              0.0                     # Si
284  284  1    16.0055009               31.06734685              0.0                     # Si
285  285  1    17.78383285              31.06734685              0.0                     # Si
286  286  1    19.56226747              31.06734685              0.0                     # Si
287  287  1    21.34059942              31.06734685              0.0                     # Si
288  288  1    24.89736599              32.09436658              0.0                     # Si
289  289  1    26.67580061              32.09436658              0.0                     # Si
290  290  1    28.45413256              32.09436658              0.0                     # Si
291  291  1    30.23256718              32.09436658              0.0                     # Si
292  292  1    32.01089913              32.09436658              0.0                     # Si
293  293  1    33.78933375              32.09436658              0.0                     # Si
294  294  1    35.5676657               32.09436658              0.0                     # Si
295  295  1    37.34610032              32.09436658              0.0                     # Si
296  296  1    39.12443227              32.09436658              0.0                     # Si
297  297  1    40.90286689              32.09436658              0.0                     # Si
298  298  1    42.68119884              32.09436658              0.0                     # Si
299  299  1    44.45963346              32.09436658              0.0                     # Si
300  300  1    46.23796541              32.09436658              0.0                     # Si
301  301  1    1.77843462               32.09436658              0.0                     # Si
302  302  1    3.55676657               32.09436658              0.0                     # Si
303  303  1    5.33520119               32.09436658              0.0                     # Si
304  304  1    7.11353314               32.09436658              0.0                     # Si
305  305  1    8.89196776               32.09436658              0.0                     # Si
306  306  1    10.67029971              32.09436658              0.0                     # Si
307  307  1    12.44873433              32.09436658              0.0                     # Si
308  308  1    14.22706628              32.09436658              0.0                     # Si
309  309  1    16.0055009               32.09436658              0.0                     # Si
310  310  1    17.78383285              32.09436658              0.0                     # Si
311  311  1    19.56226747              32.09436658              0.0                     # Si
312  312  1    21.34059942              32.09436658              0.0                     # Si
313  313  1    23.11903404              32.09436658              0.0                     # Si
314  314  1    24.00820002              32.60787644              0.0                     # Si
315  315  1    25.78653196              32.60787644              0.0                     # Si