DATA FILE Produced from netmc results (cf David Morley)
3080 atoms
7392 bonds
0 angles
0 dihedrals
0 impropers
2 atom types
2 bond types
0 angle types
0 dihedral types
0 improper types
0.00000 265.0986791272139 xlo xhi
0.00000 229.64238025228417 ylo yhi

# Pair Coeffs
#
# 1  O
# 2  Si

# Bond Coeffs
# 
# 1  O-O
# 2  Si-O
# 3  O-O rep
# 4  Si-Si rep

 Masses

1 28.10000 # O 
2 32.01000 # Si

 Atoms # molecular

1    1    2    188.62767115852554       122.18152283719395       5.0                      # Si
2    2    2    198.82406382659275       122.18152283719395       5.0                      # Si
3    3    2    209.01986773668966       122.18152283719395       5.0                      # Si
4    4    2    219.21626040475687       122.18152283719395       5.0                      # Si
5    5    2    229.41206431485378       122.18152283719395       5.0                      # Si
6    6    2    239.608456982921         122.18152283719395       5.0                      # Si
7    7    2    249.80426089301793       122.18152283719395       5.0                      # Si
8    8    2    260.00065356108513       122.18152283719395       5.0                      # Si
9    9    2    5.097901955048453        122.18152283719395       5.0                      # Si
10   10   2    15.294294623115668       122.18152283719395       5.0                      # Si
11   11   2    25.490098533212578       122.18152283719395       5.0                      # Si
12   12   2    35.686491201279786       122.18152283719395       5.0                      # Si
13   13   2    45.8822951113767         122.18152283719395       5.0                      # Si
14   14   2    56.07868777944391        122.18152283719395       5.0                      # Si
15   15   2    66.27449168954082        122.18152283719395       5.0                      # Si
16   16   2    76.47088435760803        122.18152283719395       5.0                      # Si
17   17   2    86.66668826770494        122.18152283719395       5.0                      # Si
18   18   2    183.5297692034771        125.12565588721459       5.0                      # Si
19   19   2    193.72616181421077       125.12565588721459       5.0                      # Si
20   20   2    203.9219657816412        125.12565588721459       5.0                      # Si
21   21   2    214.1183583923749        125.12565588721459       5.0                      # Si
22   22   2    224.31416235980532       125.12565588721459       5.0                      # Si
23   23   2    234.510554970539         125.12565588721459       5.0                      # Si
24   24   2    244.70635893796947       125.12565588721459       5.0                      # Si
25   25   2    254.90275154870315       125.12565588721459       5.0                      # Si
26   26   2    265.09855551613356       125.12565588721459       5.0                      # Si
27   27   2    10.19639261073369        125.12565588721459       5.0                      # Si
28   28   2    20.39219657816412        125.12565588721459       5.0                      # Si
29   29   2    30.588589188897814       125.12565588721459       5.0                      # Si
30   30   2    40.78439315632824        125.12565588721459       5.0                      # Si
31   31   2    50.98078576706193        125.12565588721459       5.0                      # Si
32   32   2    61.17658973449237        125.12565588721459       5.0                      # Si
33   33   2    71.37298234522606        125.12565588721459       5.0                      # Si
34   34   2    81.56878631265648        125.12565588721459       5.0                      # Si
35   35   2    91.76517892339018        125.12565588721459       5.0                      # Si
36   36   2    183.5297692034771        131.0139220445894        5.0                      # Si
37   37   2    193.72616181421077       131.0139220445894        5.0                      # Si
38   38   2    203.9219657816412        131.0139220445894        5.0                      # Si
39   39   2    214.1183583923749        131.0139220445894        5.0                      # Si
40   40   2    224.31416235980532       131.0139220445894        5.0                      # Si
41   41   2    234.510554970539         131.0139220445894        5.0                      # Si
42   42   2    244.70635893796947       131.0139220445894        5.0                      # Si
43   43   2    254.90275154870315       131.0139220445894        5.0                      # Si
44   44   2    265.09855551613356       131.0139220445894        5.0                      # Si
45   45   2    10.19639261073369        131.0139220445894        5.0                      # Si
46   46   2    20.39219657816412        131.0139220445894        5.0                      # Si
47   47   2    30.588589188897814       131.0139220445894        5.0                      # Si
48   48   2    40.78439315632824        131.0139220445894        5.0                      # Si
49   49   2    50.98078576706193        131.0139220445894        5.0                      # Si
50   50   2    61.17658973449237        131.0139220445894        5.0                      # Si
51   51   2    71.37298234522606        131.0139220445894        5.0                      # Si
52   52   2    81.56878631265648        131.0139220445894        5.0                      # Si
53   53   2    91.76517892339018        131.0139220445894        5.0                      # Si
54   54   2    188.62767115852554       133.95805515194357       5.0                      # Si
55   55   2    198.82406382659275       133.95805515194357       5.0                      # Si
56   56   2    209.01986773668966       133.95805515194357       5.0                      # Si
57   57   2    219.21626040475687       133.95805515194357       5.0                      # Si
58   58   2    229.41206431485378       133.95805515194357       5.0                      # Si
59   59   2    239.608456982921         133.95805515194357       5.0                      # Si
60   60   2    249.80426089301793       133.95805515194357       5.0                      # Si
61   61   2    260.00065356108513       133.95805515194357       5.0                      # Si
62   62   2    5.097901955048453        133.95805515194357       5.0                      # Si
63   63   2    15.294294623115668       133.95805515194357       5.0                      # Si
64   64   2    25.490098533212578       133.95805515194357       5.0                      # Si
65   65   2    35.686491201279786       133.95805515194357       5.0                      # Si
66   66   2    45.8822951113767         133.95805515194357       5.0                      # Si
67   67   2    56.07868777944391        133.95805515194357       5.0                      # Si
68   68   2    66.27449168954082        133.95805515194357       5.0                      # Si
69   69   2    76.47088435760803        133.95805515194357       5.0                      # Si
70   70   2    86.66668826770494        133.95805515194357       5.0                      # Si
71   71   2    178.43186724842866       139.84632130931837       5.0                      # Si
72   72   2    188.62767115852554       139.84632130931837       5.0                      # Si
73   73   2    198.82406382659275       139.84632130931837       5.0                      # Si
74   74   2    209.01986773668966       139.84632130931837       5.0                      # Si
75   75   2    219.21626040475687       139.84632130931837       5.0                      # Si
76   76   2    229.41206431485378       139.84632130931837       5.0                      # Si
77   77   2    239.608456982921         139.84632130931837       5.0                      # Si
78   78   2    249.80426089301793       139.84632130931837       5.0                      # Si
79   79   2    260.00065356108513       139.84632130931837       5.0                      # Si
80   80   2    5.097901955048453        139.84632130931837       5.0                      # Si
81   81   2    15.294294623115668       139.84632130931837       5.0                      # Si
82   82   2    25.490098533212578       139.84632130931837       5.0                      # Si
83   83   2    35.686491201279786       139.84632130931837       5.0                      # Si
84   84   2    45.8822951113767         139.84632130931837       5.0                      # Si
85   85   2    56.07868777944391        139.84632130931837       5.0                      # Si
86   86   2    66.27449168954082        139.84632130931837       5.0                      # Si
87   87   2    76.47088435760803        139.84632130931837       5.0                      # Si
88   88   2    86.66668826770494        139.84632130931837       5.0                      # Si
89   89   2    96.86308093577215        139.84632130931837       5.0                      # Si
90   90   2    183.5297692034771        142.79045435933898       5.0                      # Si
91   91   2    193.72616181421077       142.79045435933898       5.0                      # Si
92   92   2    203.9219657816412        142.79045435933898       5.0                      # Si
93   93   2    214.1183583923749        142.79045435933898       5.0                      # Si
94   94   2    224.31416235980532       142.79045435933898       5.0                      # Si
95   95   2    234.510554970539         142.79045435933898       5.0                      # Si
96   96   2    244.70635893796947       142.79045435933898       5.0                      # Si
97   97   2    254.90275154870315       142.79045435933898       5.0                      # Si
98   98   2    265.09855551613356       142.79045435933898       5.0                      # Si
99   99   2    10.19639261073369        142.79045435933898       5.0                      # Si
100  100  2    20.39219657816412        142.79045435933898       5.0                      # Si
101  101  2    30.588589188897814       142.79045435933898       5.0                      # Si
102  102  2    40.78439315632824        142.79045435933898       5.0                      # Si
103  103  2    50.98078576706193        142.79045435933898       5.0                      # Si
104  104  2    61.17658973449237        142.79045435933898       5.0                      # Si
105  105  2    71.37298234522606        142.79045435933898       5.0                      # Si
106  106  2    81.56878631265648        142.79045435933898       5.0                      # Si
107  107  2    91.76517892339018        142.79045435933898       5.0                      # Si
108  108  2    173.33396523604665       148.67872051671378       5.0                      # Si
109  109  2    183.5297692034771        148.67872051671378       5.0                      # Si
110  110  2    193.72616181421077       148.67872051671378       5.0                      # Si
111  111  2    203.9219657816412        148.67872051671378       5.0                      # Si
112  112  2    214.1183583923749        148.67872051671378       5.0                      # Si
113  113  2    224.31416235980532       148.67872051671378       5.0                      # Si
114  114  2    234.510554970539         148.67872051671378       5.0                      # Si
115  115  2    244.70635893796947       148.67872051671378       5.0                      # Si
116  116  2    254.90275154870315       148.67872051671378       5.0                      # Si
117  117  2    265.09855551613356       148.67872051671378       5.0                      # Si
118  118  2    10.19639261073369        148.67872051671378       5.0                      # Si
119  119  2    20.39219657816412        148.67872051671378       5.0                      # Si
120  120  2    30.588589188897814       148.67872051671378       5.0                      # Si
121  121  2    40.78439315632824        148.67872051671378       5.0                      # Si
122  122  2    50.98078576706193        148.67872051671378       5.0                      # Si
123  123  2    61.17658973449237        148.67872051671378       5.0                      # Si
124  124  2    71.37298234522606        148.67872051671378       5.0                      # Si
125  125  2    81.56878631265648        148.67872051671378       5.0                      # Si
126  126  2    91.76517892339018        148.67872051671378       5.0                      # Si
127  127  2    101.9609828908206        148.67872051671378       5.0                      # Si
128  128  2    178.43186724842866       151.62285362406794       5.0                      # Si
129  129  2    188.62767115852554       151.62285362406794       5.0                      # Si
130  130  2    198.82406382659275       151.62285362406794       5.0                      # Si
131  131  2    209.01986773668966       151.62285362406794       5.0                      # Si
132  132  2    219.21626040475687       151.62285362406794       5.0                      # Si
133  133  2    229.41206431485378       151.62285362406794       5.0                      # Si
134  134  2    239.608456982921         151.62285362406794       5.0                      # Si
135  135  2    249.80426089301793       151.62285362406794       5.0                      # Si
136  136  2    260.00065356108513       151.62285362406794       5.0                      # Si
137  137  2    5.097901955048453        151.62285362406794       5.0                      # Si
138  138  2    15.294294623115668       151.62285362406794       5.0                      # Si
139  139  2    25.490098533212578       151.62285362406794       5.0                      # Si
140  140  2    35.686491201279786       151.62285362406794       5.0                      # Si
141  141  2    45.8822951113767         151.62285362406794       5.0                      # Si
142  142  2    56.07868777944391        151.62285362406794       5.0                      # Si
143  143  2    66.27449168954082        151.62285362406794       5.0                      # Si
144  144  2    76.47088435760803        151.62285362406794       5.0                      # Si
145  145  2    86.66668826770494        151.62285362406794       5.0                      # Si
146  146  2    96.86308093577215        151.62285362406794       5.0                      # Si
147  147  2    168.23547458036143       157.51111978144274       5.0                      # Si
148  148  2    178.43186724842866       157.51111978144274       5.0                      # Si
149  149  2    188.62767115852554       157.51111978144274       5.0                      # Si
150  150  2    198.82406382659275       157.51111978144274       5.0                      # Si
151  151  2    209.01986773668966       157.51111978144274       5.0                      # Si
152  152  2    219.21626040475687       157.51111978144274       5.0                      # Si
153  153  2    229.41206431485378       157.51111978144274       5.0                      # Si
154  154  2    239.608456982921         157.51111978144274       5.0                      # Si
155  155  2    249.80426089301793       157.51111978144274       5.0                      # Si
156  156  2    260.00065356108513       157.51111978144274       5.0                      # Si
157  157  2    5.097901955048453        157.51111978144274       5.0                      # Si
158  158  2    15.294294623115668       157.51111978144274       5.0                      # Si
159  159  2    25.490098533212578       157.51111978144274       5.0                      # Si
160  160  2    35.686491201279786       157.51111978144274       5.0                      # Si
161  161  2    45.8822951113767         157.51111978144274       5.0                      # Si
162  162  2    56.07868777944391        157.51111978144274       5.0                      # Si
163  163  2    66.27449168954082        157.51111978144274       5.0                      # Si
164  164  2    76.47088435760803        157.51111978144274       5.0                      # Si
165  165  2    86.66668826770494        157.51111978144274       5.0                      # Si
166  166  2    96.86308093577215        157.51111978144274       5.0                      # Si
167  167  2    107.05888484586906       157.51111978144274       5.0                      # Si
168  168  2    173.33396523604665       160.45525283146338       5.0                      # Si
169  169  2    183.5297692034771        160.45525283146338       5.0                      # Si
170  170  2    193.72616181421077       160.45525283146338       5.0                      # Si
171  171  2    203.9219657816412        160.45525283146338       5.0                      # Si
172  172  2    214.1183583923749        160.45525283146338       5.0                      # Si
173  173  2    224.31416235980532       160.45525283146338       5.0                      # Si
174  174  2    234.510554970539         160.45525283146338       5.0                      # Si
175  175  2    244.70635893796947       160.45525283146338       5.0                      # Si
176  176  2    254.90275154870315       160.45525283146338       5.0                      # Si
177  177  2    265.09855551613356       160.45525283146338       5.0                      # Si
178  178  2    10.19639261073369        160.45525283146338       5.0                      # Si
179  179  2    20.39219657816412        160.45525283146338       5.0                      # Si
180  180  2    30.588589188897814       160.45525283146338       5.0                      # Si
181  181  2    40.78439315632824        160.45525283146338       5.0                      # Si
182  182  2    50.98078576706193        160.45525283146338       5.0                      # Si
183  183  2    61.17658973449237        160.45525283146338       5.0                      # Si
184  184  2    71.37298234522606        160.45525283146338       5.0                      # Si
185  185  2    81.56878631265648        160.45525283146338       5.0                      # Si
186  186  2    91.76517892339018        160.45525283146338       5.0                      # Si
187  187  2    101.9609828908206        160.45525283146338       5.0                      # Si
188  188  2    163.13757262531297       166.3435190461717        5.0                      # Si
189  189  2    173.33396523604665       166.3435190461717        5.0                      # Si
190  190  2    183.5297692034771        166.3435190461717        5.0                      # Si
191  191  2    193.72616181421077       166.3435190461717        5.0                      # Si
192  192  2    203.9219657816412        166.3435190461717        5.0                      # Si
193  193  2    214.1183583923749        166.3435190461717        5.0                      # Si
194  194  2    224.31416235980532       166.3435190461717        5.0                      # Si
195  195  2    234.510554970539         166.3435190461717        5.0                      # Si
196  196  2    244.70635893796947       166.3435190461717        5.0                      # Si
197  197  2    254.90275154870315       166.3435190461717        5.0                      # Si
198  198  2    265.09855551613356       166.3435190461717        5.0                      # Si
199  199  2    10.19639261073369        166.3435190461717        5.0                      # Si
200  200  2    20.39219657816412        166.3435190461717        5.0                      # Si
201  201  2    30.588589188897814       166.3435190461717        5.0                      # Si
202  202  2    40.78439315632824        166.3435190461717        5.0                      # Si
203  203  2    50.98078576706193        166.3435190461717        5.0                      # Si
204  204  2    61.17658973449237        166.3435190461717        5.0                      # Si
205  205  2    71.37298234522606        166.3435190461717        5.0                      # Si
206  206  2    81.56878631265648        166.3435190461717        5.0                      # Si
207  207  2    91.76517892339018        166.3435190461717        5.0                      # Si
208  208  2    101.9609828908206        166.3435190461717        5.0                      # Si
209  209  2    112.15737550155428       166.3435190461717        5.0                      # Si
210  210  2    137.6474740921004        169.28765209619235       5.0                      # Si
211  211  2    147.8432780021973        169.28765209619235       5.0                      # Si
212  212  2    158.0396706702645        169.28765209619235       5.0                      # Si
213  213  2    168.23547458036143       169.28765209619235       5.0                      # Si
214  214  2    178.43186724842866       169.28765209619235       5.0                      # Si
215  215  2    188.62767115852554       169.28765209619235       5.0                      # Si
216  216  2    198.82406382659275       169.28765209619235       5.0                      # Si
217  217  2    209.01986773668966       169.28765209619235       5.0                      # Si
218  218  2    219.21626040475687       169.28765209619235       5.0                      # Si
219  219  2    229.41206431485378       169.28765209619235       5.0                      # Si
220  220  2    239.608456982921         169.28765209619235       5.0                      # Si
221  221  2    249.80426089301793       169.28765209619235       5.0                      # Si
222  222  2    260.00065356108513       169.28765209619235       5.0                      # Si
223  223  2    5.097901955048453        169.28765209619235       5.0                      # Si
224  224  2    15.294294623115668       169.28765209619235       5.0                      # Si
225  225  2    25.490098533212578       169.28765209619235       5.0                      # Si
226  226  2    35.686491201279786       169.28765209619235       5.0                      # Si
227  227  2    45.8822951113767         169.28765209619235       5.0                      # Si
228  228  2    56.07868777944391        169.28765209619235       5.0                      # Si
229  229  2    66.27449168954082        169.28765209619235       5.0                      # Si
230  230  2    76.47088435760803        169.28765209619235       5.0                      # Si
231  231  2    86.66668826770494        169.28765209619235       5.0                      # Si
232  232  2    96.86308093577215        169.28765209619235       5.0                      # Si
233  233  2    107.05888484586906       169.28765209619235       5.0                      # Si
234  234  2    117.25527751393628       169.28765209619235       5.0                      # Si
235  235  2    127.45108142403319       169.28765209619235       5.0                      # Si
236  236  2    137.6474740921004        175.17591825356715       5.0                      # Si
237  237  2    147.8432780021973        175.17591825356715       5.0                      # Si
238  238  2    158.0396706702645        175.17591825356715       5.0                      # Si
239  239  2    168.23547458036143       175.17591825356715       5.0                      # Si
240  240  2    178.43186724842866       175.17591825356715       5.0                      # Si
241  241  2    188.62767115852554       175.17591825356715       5.0                      # Si
242  242  2    198.82406382659275       175.17591825356715       5.0                      # Si
243  243  2    209.01986773668966       175.17591825356715       5.0                      # Si
244  244  2    219.21626040475687       175.17591825356715       5.0                      # Si
245  245  2    229.41206431485378       175.17591825356715       5.0                      # Si
246  246  2    239.608456982921         175.17591825356715       5.0                      # Si
247  247  2    249.80426089301793       175.17591825356715       5.0                      # Si
248  248  2    260.00065356108513       175.17591825356715       5.0                      # Si
249  249  2    5.097901955048453        175.17591825356715       5.0                      # Si
250  250  2    15.294294623115668       175.17591825356715       5.0                      # Si
251  251  2    25.490098533212578       175.17591825356715       5.0                      # Si
252  252  2    35.686491201279786       175.17591825356715       5.0                      # Si
253  253  2    45.8822951113767         175.17591825356715       5.0                      # Si
254  254  2    56.07868777944391        175.17591825356715       5.0                      # Si
255  255  2    66.27449168954082        175.17591825356715       5.0                      # Si
256  256  2    76.47088435760803        175.17591825356715       5.0                      # Si
257  257  2    86.66668826770494        175.17591825356715       5.0                      # Si
258  258  2    96.86308093577215        175.17591825356715       5.0                      # Si
259  259  2    107.05888484586906       175.17591825356715       5.0                      # Si
260  260  2    117.25527751393628       175.17591825356715       5.0                      # Si
261  261  2    127.45108142403319       175.17591825356715       5.0                      # Si
262  262  2    132.54957207971842       178.1200513609213        5.0                      # Si
263  263  2    142.74537604714885       178.1200513609213        5.0                      # Si
264  264  2    152.94176865788253       178.1200513609213        5.0                      # Si
265  265  2    163.13757262531297       178.1200513609213        5.0                      # Si
266  266  2    173.33396523604665       178.1200513609213        5.0                      # Si
267  267  2    183.5297692034771        178.1200513609213        5.0                      # Si
268  268  2    193.72616181421077       178.1200513609213        5.0                      # Si
269  269  2    203.9219657816412        178.1200513609213        5.0                      # Si
270  270  2    214.1183583923749        178.1200513609213        5.0                      # Si
271  271  2    224.31416235980532       178.1200513609213        5.0                      # Si
272  272  2    234.510554970539         178.1200513609213        5.0                      # Si
273  273  2    244.70635893796947       178.1200513609213        5.0                      # Si
274  274  2    254.90275154870315       178.1200513609213        5.0                      # Si
275  275  2    265.09855551613356       178.1200513609213        5.0                      # Si
276  276  2    10.19639261073369        178.1200513609213        5.0                      # Si
277  277  2    20.39219657816412        178.1200513609213        5.0                      # Si
278  278  2    30.588589188897814       178.1200513609213        5.0                      # Si
279  279  2    40.78439315632824        178.1200513609213        5.0                      # Si
280  280  2    50.98078576706193        178.1200513609213        5.0                      # Si
281  281  2    61.17658973449237        178.1200513609213        5.0                      # Si
282  282  2    71.37298234522606        178.1200513609213        5.0                      # Si
283  283  2    81.56878631265648        178.1200513609213        5.0                      # Si
284  284  2    91.76517892339018        178.1200513609213        5.0                      # Si
285  285  2    101.9609828908206        178.1200513609213        5.0                      # Si
286  286  2    112.15737550155428       178.1200513609213        5.0                      # Si
287  287  2    122.35317946898473       178.1200513609213        5.0                      # Si
288  288  2    142.74537604714885       184.00831751829608       5.0                      # Si
289  289  2    152.94176865788253       184.00831751829608       5.0                      # Si
290  290  2    163.13757262531297       184.00831751829608       5.0                      # Si
291  291  2    173.33396523604665       184.00831751829608       5.0                      # Si
292  292  2    183.5297692034771        184.00831751829608       5.0                      # Si
293  293  2    193.72616181421077       184.00831751829608       5.0                      # Si
294  294  2    203.9219657816412        184.00831751829608       5.0                      # Si
295  295  2    214.1183583923749        184.00831751829608       5.0                      # Si
296  296  2    224.31416235980532       184.00831751829608       5.0                      # Si
297  297  2    234.510554970539         184.00831751829608       5.0                      # Si
298  298  2    244.70635893796947       184.00831751829608       5.0                      # Si
299  299  2    254.90275154870315       184.00831751829608       5.0                      # Si
300  300  2    265.09855551613356       184.00831751829608       5.0                      # Si
301  301  2    10.19639261073369        184.00831751829608       5.0                      # Si
302  302  2    20.39219657816412        184.00831751829608       5.0                      # Si
303  303  2    30.588589188897814       184.00831751829608       5.0                      # Si
304  304  2    40.78439315632824        184.00831751829608       5.0                      # Si
305  305  2    50.98078576706193        184.00831751829608       5.0                      # Si
306  306  2    61.17658973449237        184.00831751829608       5.0                      # Si
307  307  2    71.37298234522606        184.00831751829608       5.0                      # Si
308  308  2    81.56878631265648        184.00831751829608       5.0                      # Si
309  309  2    91.76517892339018        184.00831751829608       5.0                      # Si
310  310  2    101.9609828908206        184.00831751829608       5.0                      # Si
311  311  2    112.15737550155428       184.00831751829608       5.0                      # Si