DATA FILE Produced from netmc results (cf David Morley)
7392 atoms
24640 bonds
0 angles
0 dihedrals
0 impropers
2 atom types
0 bond types
2 bond types
0 angle types
0 dihedral types
0 improper types
0.00000 265.0986791272139 xlo xhi
0.00000 229.64238025228417 ylo yhi
0.0000 200.0000 zlo zhi

# Pair Coeffs
#
# 1  O
# 2  Si

# Bond Coeffs
# 
# 1  O-O
# 2  Si-O
# 3  O-O rep
# 4  Si-Si rep

 Masses

1 28.10000 # O 
2 32.01000 # Si

 Atoms # molecular

1    1    1    188.62767115852554       122.18152283719395       8.040569334518267        # O
2    2    1    198.82406382659275       122.18152283719395       8.040569334518267        # O
3    3    1    209.01986773668966       122.18152283719395       8.040569334518267        # O
4    4    1    219.21626040475687       122.18152283719395       8.040569334518267        # O
5    5    1    229.41206431485378       122.18152283719395       8.040569334518267        # O
6    6    1    239.608456982921         122.18152283719395       8.040569334518267        # O
7    7    1    249.80426089301793       122.18152283719395       8.040569334518267        # O
8    8    1    260.00065356108513       122.18152283719395       8.040569334518267        # O
9    9    1    5.097901955048453        122.18152283719395       8.040569334518267        # O
10   10   1    15.294294623115668       122.18152283719395       8.040569334518267        # O
11   11   1    25.490098533212578       122.18152283719395       8.040569334518267        # O
12   12   1    35.686491201279786       122.18152283719395       8.040569334518267        # O
13   13   1    45.8822951113767         122.18152283719395       8.040569334518267        # O
14   14   1    56.07868777944391        122.18152283719395       8.040569334518267        # O
15   15   1    66.27449168954082        122.18152283719395       8.040569334518267        # O
16   16   1    76.47088435760803        122.18152283719395       8.040569334518267        # O
17   17   1    86.66668826770494        122.18152283719395       8.040569334518267        # O
18   18   1    183.5297692034771        125.12565588721459       8.040569334518267        # O
19   19   1    193.72616181421077       125.12565588721459       8.040569334518267        # O
20   20   1    203.9219657816412        125.12565588721459       8.040569334518267        # O
21   21   1    214.1183583923749        125.12565588721459       8.040569334518267        # O
22   22   1    224.31416235980532       125.12565588721459       8.040569334518267        # O
23   23   1    234.510554970539         125.12565588721459       8.040569334518267        # O
24   24   1    244.70635893796947       125.12565588721459       8.040569334518267        # O
25   25   1    254.90275154870315       125.12565588721459       8.040569334518267        # O
26   26   1    265.09855551613356       125.12565588721459       8.040569334518267        # O
27   27   1    10.19639261073369        125.12565588721459       8.040569334518267        # O
28   28   1    20.39219657816412        125.12565588721459       8.040569334518267        # O
29   29   1    30.588589188897814       125.12565588721459       8.040569334518267        # O
30   30   1    40.78439315632824        125.12565588721459       8.040569334518267        # O
31   31   1    50.98078576706193        125.12565588721459       8.040569334518267        # O
32   32   1    61.17658973449237        125.12565588721459       8.040569334518267        # O
33   33   1    71.37298234522606        125.12565588721459       8.040569334518267        # O
34   34   1    81.56878631265648        125.12565588721459       8.040569334518267        # O
35   35   1    91.76517892339018        125.12565588721459       8.040569334518267        # O
36   36   1    183.5297692034771        131.0139220445894        8.040569334518267        # O
37   37   1    193.72616181421077       131.0139220445894        8.040569334518267        # O
38   38   1    203.9219657816412        131.0139220445894        8.040569334518267        # O
39   39   1    214.1183583923749        131.0139220445894        8.040569334518267        # O
40   40   1    224.31416235980532       131.0139220445894        8.040569334518267        # O
41   41   1    234.510554970539         131.0139220445894        8.040569334518267        # O
42   42   1    244.70635893796947       131.0139220445894        8.040569334518267        # O
43   43   1    254.90275154870315       131.0139220445894        8.040569334518267        # O
44   44   1    265.09855551613356       131.0139220445894        8.040569334518267        # O
45   45   1    10.19639261073369        131.0139220445894        8.040569334518267        # O
46   46   1    20.39219657816412        131.0139220445894        8.040569334518267        # O
47   47   1    30.588589188897814       131.0139220445894        8.040569334518267        # O
48   48   1    40.78439315632824        131.0139220445894        8.040569334518267        # O
49   49   1    50.98078576706193        131.0139220445894        8.040569334518267        # O
50   50   1    61.17658973449237        131.0139220445894        8.040569334518267        # O
51   51   1    71.37298234522606        131.0139220445894        8.040569334518267        # O
52   52   1    81.56878631265648        131.0139220445894        8.040569334518267        # O
53   53   1    91.76517892339018        131.0139220445894        8.040569334518267        # O
54   54   1    188.62767115852554       133.95805515194357       8.040569334518267        # O
55   55   1    198.82406382659275       133.95805515194357       8.040569334518267        # O
56   56   1    209.01986773668966       133.95805515194357       8.040569334518267        # O
57   57   1    219.21626040475687       133.95805515194357       8.040569334518267        # O
58   58   1    229.41206431485378       133.95805515194357       8.040569334518267        # O
59   59   1    239.608456982921         133.95805515194357       8.040569334518267        # O
60   60   1    249.80426089301793       133.95805515194357       8.040569334518267        # O
61   61   1    260.00065356108513       133.95805515194357       8.040569334518267        # O
62   62   1    5.097901955048453        133.95805515194357       8.040569334518267        # O
63   63   1    15.294294623115668       133.95805515194357       8.040569334518267        # O
64   64   1    25.490098533212578       133.95805515194357       8.040569334518267        # O
65   65   1    35.686491201279786       133.95805515194357       8.040569334518267        # O
66   66   1    45.8822951113767         133.95805515194357       8.040569334518267        # O
67   67   1    56.07868777944391        133.95805515194357       8.040569334518267        # O
68   68   1    66.27449168954082        133.95805515194357       8.040569334518267        # O
69   69   1    76.47088435760803        133.95805515194357       8.040569334518267        # O
70   70   1    86.66668826770494        133.95805515194357       8.040569334518267        # O
71   71   1    178.43186724842866       139.84632130931837       8.040569334518267        # O
72   72   1    188.62767115852554       139.84632130931837       8.040569334518267        # O
73   73   1    198.82406382659275       139.84632130931837       8.040569334518267        # O
74   74   1    209.01986773668966       139.84632130931837       8.040569334518267        # O
75   75   1    219.21626040475687       139.84632130931837       8.040569334518267        # O
76   76   1    229.41206431485378       139.84632130931837       8.040569334518267        # O
77   77   1    239.608456982921         139.84632130931837       8.040569334518267        # O
78   78   1    249.80426089301793       139.84632130931837       8.040569334518267        # O
79   79   1    260.00065356108513       139.84632130931837       8.040569334518267        # O
80   80   1    5.097901955048453        139.84632130931837       8.040569334518267        # O
81   81   1    15.294294623115668       139.84632130931837       8.040569334518267        # O
82   82   1    25.490098533212578       139.84632130931837       8.040569334518267        # O
83   83   1    35.686491201279786       139.84632130931837       8.040569334518267        # O
84   84   1    45.8822951113767         139.84632130931837       8.040569334518267        # O
85   85   1    56.07868777944391        139.84632130931837       8.040569334518267        # O
86   86   1    66.27449168954082        139.84632130931837       8.040569334518267        # O
87   87   1    76.47088435760803        139.84632130931837       8.040569334518267        # O
88   88   1    86.66668826770494        139.84632130931837       8.040569334518267        # O
89   89   1    96.86308093577215        139.84632130931837       8.040569334518267        # O
90   90   1    183.5297692034771        142.79045435933898       8.040569334518267        # O
91   91   1    193.72616181421077       142.79045435933898       8.040569334518267        # O
92   92   1    203.9219657816412        142.79045435933898       8.040569334518267        # O
93   93   1    214.1183583923749        142.79045435933898       8.040569334518267        # O
94   94   1    224.31416235980532       142.79045435933898       8.040569334518267        # O
95   95   1    234.510554970539         142.79045435933898       8.040569334518267        # O
96   96   1    244.70635893796947       142.79045435933898       8.040569334518267        # O
97   97   1    254.90275154870315       142.79045435933898       8.040569334518267        # O
98   98   1    265.09855551613356       142.79045435933898       8.040569334518267        # O
99   99   1    10.19639261073369        142.79045435933898       8.040569334518267        # O
100  100  1    20.39219657816412        142.79045435933898       8.040569334518267        # O
101  101  1    30.588589188897814       142.79045435933898       8.040569334518267        # O
102  102  1    40.78439315632824        142.79045435933898       8.040569334518267        # O
103  103  1    50.98078576706193        142.79045435933898       8.040569334518267        # O
104  104  1    61.17658973449237        142.79045435933898       8.040569334518267        # O
105  105  1    71.37298234522606        142.79045435933898       8.040569334518267        # O
106  106  1    81.56878631265648        142.79045435933898       8.040569334518267        # O
107  107  1    91.76517892339018        142.79045435933898       8.040569334518267        # O
108  108  1    173.33396523604665       148.67872051671378       8.040569334518267        # O
109  109  1    183.5297692034771        148.67872051671378       8.040569334518267        # O
110  110  1    193.72616181421077       148.67872051671378       8.040569334518267        # O
111  111  1    203.9219657816412        148.67872051671378       8.040569334518267        # O
112  112  1    214.1183583923749        148.67872051671378       8.040569334518267        # O
113  113  1    224.31416235980532       148.67872051671378       8.040569334518267        # O
114  114  1    234.510554970539         148.67872051671378       8.040569334518267        # O
115  115  1    244.70635893796947       148.67872051671378       8.040569334518267        # O
116  116  1    254.90275154870315       148.67872051671378       8.040569334518267        # O
117  117  1    265.09855551613356       148.67872051671378       8.040569334518267        # O
118  118  1    10.19639261073369        148.67872051671378       8.040569334518267        # O
119  119  1    20.39219657816412        148.67872051671378       8.040569334518267        # O
120  120  1    30.588589188897814       148.67872051671378       8.040569334518267        # O
121  121  1    40.78439315632824        148.67872051671378       8.040569334518267        # O
122  122  1    50.98078576706193        148.67872051671378       8.040569334518267        # O
123  123  1    61.17658973449237        148.67872051671378       8.040569334518267        # O
124  124  1    71.37298234522606        148.67872051671378       8.040569334518267        # O
125  125  1    81.56878631265648        148.67872051671378       8.040569334518267        # O
126  126  1    91.76517892339018        148.67872051671378       8.040569334518267        # O
127  127  1    101.9609828908206        148.67872051671378       8.040569334518267        # O
128  128  1    178.43186724842866       151.62285362406794       8.040569334518267        # O
129  129  1    188.62767115852554       151.62285362406794       8.040569334518267        # O
130  130  1    198.82406382659275       151.62285362406794       8.040569334518267        # O
131  131  1    209.01986773668966       151.62285362406794       8.040569334518267        # O
132  132  1    219.21626040475687       151.62285362406794       8.040569334518267        # O
133  133  1    229.41206431485378       151.62285362406794       8.040569334518267        # O
134  134  1    239.608456982921         151.62285362406794       8.040569334518267        # O
135  135  1    249.80426089301793       151.62285362406794       8.040569334518267        # O
136  136  1    260.00065356108513       151.62285362406794       8.040569334518267        # O
137  137  1    5.097901955048453        151.62285362406794       8.040569334518267        # O
138  138  1    15.294294623115668       151.62285362406794       8.040569334518267        # O
139  139  1    25.490098533212578       151.62285362406794       8.040569334518267        # O
140  140  1    35.686491201279786       151.62285362406794       8.040569334518267        # O
141  141  1    45.8822951113767         151.62285362406794       8.040569334518267        # O
142  142  1    56.07868777944391        151.62285362406794       8.040569334518267        # O
143  143  1    66.27449168954082        151.62285362406794       8.040569334518267        # O
144  144  1    76.47088435760803        151.62285362406794       8.040569334518267        # O
145  145  1    86.66668826770494        151.62285362406794       8.040569334518267        # O
146  146  1    96.86308093577215        151.62285362406794       8.040569334518267        # O
147  147  1    168.23547458036143       157.51111978144274       8.040569334518267        # O
148  148  1    178.43186724842866       157.51111978144274       8.040569334518267        # O
149  149  1    188.62767115852554       157.51111978144274       8.040569334518267        # O
150  150  1    198.82406382659275       157.51111978144274       8.040569334518267        # O
151  151  1    209.01986773668966       157.51111978144274       8.040569334518267        # O
152  152  1    219.21626040475687       157.51111978144274       8.040569334518267        # O
153  153  1    229.41206431485378       157.51111978144274       8.040569334518267        # O
154  154  1    239.608456982921         157.51111978144274       8.040569334518267        # O
155  155  1    249.80426089301793       157.51111978144274       8.040569334518267        # O
156  156  1    260.00065356108513       157.51111978144274       8.040569334518267        # O
157  157  1    5.097901955048453        157.51111978144274       8.040569334518267        # O
158  158  1    15.294294623115668       157.51111978144274       8.040569334518267        # O
159  159  1    25.490098533212578       157.51111978144274       8.040569334518267        # O
160  160  1    35.686491201279786       157.51111978144274       8.040569334518267        # O
161  161  1    45.8822951113767         157.51111978144274       8.040569334518267        # O
162  162  1    56.07868777944391        157.51111978144274       8.040569334518267        # O
163  163  1    66.27449168954082        157.51111978144274       8.040569334518267        # O
164  164  1    76.47088435760803        157.51111978144274       8.040569334518267        # O
165  165  1    86.66668826770494        157.51111978144274       8.040569334518267        # O
166  166  1    96.86308093577215        157.51111978144274       8.040569334518267        # O
167  167  1    107.05888484586906       157.51111978144274       8.040569334518267        # O
168  168  1    173.33396523604665       160.45525283146338       8.040569334518267        # O
169  169  1    183.5297692034771        160.45525283146338       8.040569334518267        # O
170  170  1    193.72616181421077       160.45525283146338       8.040569334518267        # O
171  171  1    203.9219657816412        160.45525283146338       8.040569334518267        # O
172  172  1    214.1183583923749        160.45525283146338       8.040569334518267        # O
173  173  1    224.31416235980532       160.45525283146338       8.040569334518267        # O
174  174  1    234.510554970539         160.45525283146338       8.040569334518267        # O
175  175  1    244.70635893796947       160.45525283146338       8.040569334518267        # O
176  176  1    254.90275154870315       160.45525283146338       8.040569334518267        # O
177  177  1    265.09855551613356       160.45525283146338       8.040569334518267        # O
178  178  1    10.19639261073369        160.45525283146338       8.040569334518267        # O
179  179  1    20.39219657816412        160.45525283146338       8.040569334518267        # O
180  180  1    30.588589188897814       160.45525283146338       8.040569334518267        # O
181  181  1    40.78439315632824        160.45525283146338       8.040569334518267        # O
182  182  1    50.98078576706193        160.45525283146338       8.040569334518267        # O
183  183  1    61.17658973449237        160.45525283146338       8.040569334518267        # O
184  184  1    71.37298234522606        160.45525283146338       8.040569334518267        # O
185  185  1    81.56878631265648        160.45525283146338       8.040569334518267        # O
186  186  1    91.76517892339018        160.45525283146338       8.040569334518267        # O
187  187  1    101.9609828908206        160.45525283146338       8.040569334518267        # O
188  188  1    163.13757262531297       166.3435190461717        8.040569334518267        # O
189  189  1    173.33396523604665       166.3435190461717        8.040569334518267        # O
190  190  1    183.5297692034771        166.3435190461717        8.040569334518267        # O
191  191  1    193.72616181421077       166.3435190461717        8.040569334518267        # O
192  192  1    203.9219657816412        166.3435190461717        8.040569334518267        # O
193  193  1    214.1183583923749        166.3435190461717        8.040569334518267        # O
194  194  1    224.31416235980532       166.3435190461717        8.040569334518267        # O
195  195  1    234.510554970539         166.3435190461717        8.040569334518267        # O
196  196  1    244.70635893796947       166.3435190461717        8.040569334518267        # O
197  197  1    254.90275154870315       166.3435190461717        8.040569334518267        # O
198  198  1    265.09855551613356       166.3435190461717        8.040569334518267        # O
199  199  1    10.19639261073369        166.3435190461717        8.040569334518267        # O
200  200  1    20.39219657816412        166.3435190461717        8.040569334518267        # O
201  201  1    30.588589188897814       166.3435190461717        8.040569334518267        # O
202  202  1    40.78439315632824        166.3435190461717        8.040569334518267        # O
203  203  1    50.98078576706193        166.3435190461717        8.040569334518267        # O
204  204  1    61.17658973449237        166.3435190461717        8.040569334518267        # O
205  205  1    71.37298234522606        166.3435190461717        8.040569334518267        # O
206  206  1    81.56878631265648        166.3435190461717        8.040569334518267        # O
207  207  1    91.76517892339018        166.3435190461717        8.040569334518267        # O
208  208  1    101.9609828908206        166.3435190461717        8.040569334518267        # O
209  209  1    112.15737550155428       166.3435190461717        8.040569334518267        # O
210  210  1    137.6474740921004        169.28765209619235       8.040569334518267        # O
211  211  1    147.8432780021973        169.28765209619235       8.040569334518267        # O
212  212  1    158.0396706702645        169.28765209619235       8.040569334518267        # O
213  213  1    168.23547458036143       169.28765209619235       8.040569334518267        # O
214  214  1    178.43186724842866       169.28765209619235       8.040569334518267        # O
215  215  1    188.62767115852554       169.28765209619235       8.040569334518267        # O
216  216  1    198.82406382659275       169.28765209619235       8.040569334518267        # O
217  217  1    209.01986773668966       169.28765209619235       8.040569334518267        # O
218  218  1    219.21626040475687       169.28765209619235       8.040569334518267        # O
219  219  1    229.41206431485378       169.28765209619235       8.040569334518267        # O
220  220  1    239.608456982921         169.28765209619235       8.040569334518267        # O
221  221  1    249.80426089301793       169.28765209619235       8.040569334518267        # O
222  222  1    260.00065356108513       169.28765209619235       8.040569334518267        # O
223  223  1    5.097901955048453        169.28765209619235       8.040569334518267        # O
224  224  1    15.294294623115668       169.28765209619235       8.040569334518267        # O
225  225  1    25.490098533212578       169.28765209619235       8.040569334518267        # O
226  226  1    35.686491201279786       169.28765209619235       8.040569334518267        # O
227  227  1    45.8822951113767         169.28765209619235       8.040569334518267        # O
228  228  1    56.07868777944391        169.28765209619235       8.040569334518267        # O
229  229  1    66.27449168954082        169.28765209619235       8.040569334518267        # O
230  230  1    76.47088435760803        169.28765209619235       8.040569334518267        # O
231  231  1    86.66668826770494        169.28765209619235       8.040569334518267        # O
232  232  1    96.86308093577215        169.28765209619235       8.040569334518267        # O
233  233  1    107.05888484586906       169.28765209619235       8.040569334518267        # O
234  234  1    117.25527751393628       169.28765209619235       8.040569334518267        # O
235  235  1    127.45108142403319       169.28765209619235       8.040569334518267        # O
236  236  1    137.6474740921004        175.17591825356715       8.040569334518267        # O
237  237  1    147.8432780021973        175.17591825356715       8.040569334518267        # O
238  238  1    158.0396706702645        175.17591825356715       8.040569334518267        # O
239  239  1    168.23547458036143       175.17591825356715       8.040569334518267        # O
240  240  1    178.43186724842866       175.17591825356715       8.040569334518267        # O
241  241  1    188.62767115852554       175.17591825356715       8.040569334518267        # O
242  242  1    198.82406382659275       175.17591825356715       8.040569334518267        # O
243  243  1    209.01986773668966       175.17591825356715       8.040569334518267        # O
244  244  1    219.21626040475687       175.17591825356715       8.040569334518267        # O
245  245  1    229.41206431485378       175.17591825356715       8.040569334518267        # O
246  246  1    239.608456982921         175.17591825356715       8.040569334518267        # O
247  247  1    249.80426089301793       175.17591825356715       8.040569334518267        # O
248  248  1    260.00065356108513       175.17591825356715       8.040569334518267        # O
249  249  1    5.097901955048453        175.17591825356715       8.040569334518267        # O
250  250  1    15.294294623115668       175.17591825356715       8.040569334518267        # O
251  251  1    25.490098533212578       175.17591825356715       8.040569334518267        # O
252  252  1    35.686491201279786       175.17591825356715       8.040569334518267        # O
253  253  1    45.8822951113767         175.17591825356715       8.040569334518267        # O
254  254  1    56.07868777944391        175.17591825356715       8.040569334518267        # O
255  255  1    66.27449168954082        175.17591825356715       8.040569334518267        # O
256  256  1    76.47088435760803        175.17591825356715       8.040569334518267        # O
257  257  1    86.66668826770494        175.17591825356715       8.040569334518267        # O
258  258  1    96.86308093577215        175.17591825356715       8.040569334518267        # O
259  259  1    107.05888484586906       175.17591825356715       8.040569334518267        # O
260  260  1    117.25527751393628       175.17591825356715       8.040569334518267        # O
261  261  1    127.45108142403319       175.17591825356715       8.040569334518267        # O
262  262  1    132.54957207971842       178.1200513609213        8.040569334518267        # O
263  263  1    142.74537604714885       178.1200513609213        8.040569334518267        # O
264  264  1    152.94176865788253       178.1200513609213        8.040569334518267        # O
265  265  1    163.13757262531297       178.1200513609213        8.040569334518267        # O
266  266  1    173.33396523604665       178.1200513609213        8.040569334518267        # O
267  267  1    183.5297692034771        178.1200513609213        8.040569334518267        # O
268  268  1    193.72616181421077       178.1200513609213        8.040569334518267        # O
269  269  1    203.9219657816412        178.1200513609213        8.040569334518267        # O
270  270  1    214.1183583923749        178.1200513609213        8.040569334518267        # O
271  271  1    224.31416235980532       178.1200513609213        8.040569334518267        # O
272  272  1    234.510554970539         178.1200513609213        8.040569334518267        # O
273  273  1    244.70635893796947       178.1200513609213        8.040569334518267        # O
274  274  1    254.90275154870315       178.1200513609213        8.040569334518267        # O
275  275  1    265.09855551613356       178.1200513609213        8.040569334518267        # O
276  276  1    10.19639261073369        178.1200513609213        8.040569334518267        # O
277  277  1    20.39219657816412        178.1200513609213        8.040569334518267        # O
278  278  1    30.588589188897814       178.1200513609213        8.040569334518267        # O
279  279  1    40.78439315632824        178.1200513609213        8.040569334518267        # O
280  280  1    50.98078576706193        178.1200513609213        8.040569334518267        # O
281  281  1    61.17658973449237        178.1200513609213        8.040569334518267        # O
282  282  1    71.37298234522606        178.1200513609213        8.040569334518267        # O
283  283  1    81.56878631265648        178.1200513609213        8.040569334518267        # O
284  284  1    91.76517892339018        178.1200513609213        8.040569334518267        # O
285  285  1    101.9609828908206        178.1200513609213        8.040569334518267        # O
286  286  1    112.15737550155428       178.1200513609213        8.040569334518267        # O
287  287  1    122.35317946898473       178.1200513609213        8.040569334518267        # O
288  288  1    142.74537604714885       184.00831751829608       8.040569334518267        # O
289  289  1    152.94176865788253       184.00831751829608       8.040569334518267        # O
290  290  1    163.13757262531297       184.00831751829608       8.040569334518267        # O
291  291  1    173.33396523604665       184.00831751829608       8.040569334518267        # O
292  292  1    183.5297692034771        184.00831751829608       8.040569334518267        # O
293  293  1    193.72616181421077       184.00831751829608       8.040569334518267        # O
294  294  1    203.9219657816412        184.00831751829608       8.040569334518267        # O
295  295  1    214.1183583923749        184.00831751829608       8.040569334518267        # O
296  296  1    224.31416235980532       184.00831751829608       8.040569334518267        # O
297  297  1    234.510554970539         184.00831751829608       8.040569334518267        # O
298  298  1    244.70635893796947       184.00831751829608       8.040569334518267        # O
299  299  1    254.90275154870315       184.00831751829608       8.040569334518267        # O
300  300  1    265.09855551613356       184.00831751829608       8.040569334518267        # O
301  301  1    10.19639261073369        184.00831751829608       8.040569334518267        # O
302  302  1    20.39219657816412        184.00831751829608       8.040569334518267        # O
303  303  1    30.588589188897814       184.00831751829608       8.040569334518267        # O
304  304  1    40.78439315632824        184.00831751829608       8.040569334518267        # O
305  305  1    50.98078576706193        184.00831751829608       8.040569334518267        # O
306  306  1    61.17658973449237        184.00831751829608       8.040569334518267        # O
307  307  1    71.37298234522606        184.00831751829608       8.040569334518267        # O
308  308  1    81.56878631265648        184.00831751829608       8.040569334518267        # O
309  309  1    91.76517892339018        184.00831751829608       8.040569334518267        # O
310  310  1    101.9609828908206        184.00831751829608       8.040569334518267        # O
311  311  1    112.15737550155428       184.00831751829608       8.040569334518267        # O
312  312  1    122.35317946898473       184.00831751829608       8.040569334518267        # O
313  313  1    132.54957207971842       184.00831751829608       8.040569334518267        # O
314  314  1    137.6474740921004        186.95245056831672       8.040569334518267        # O