DATA FILE Produced from netmc results (cf David Morley)
1324 atoms
1986 bonds
3972 angles
0 dihedrals
0 impropers
1 atom types
1 bond types
1 angle types
0 dihedral types
0 improper types
0.00000 44.56455991349017 xlo xhi
0.00000 38.59404099080582 ylo yhi

# Pair Coeffs
#
# 1  Si

# Bond Coeffs
# 
# 1  Si-Si

# Angle Coeffs
# 
# 1  Si-Si-Si

 Masses

1 28.085500 # Si

 Atoms # molecular

1    1    1    26.56734614543502        20.53400898869797        0.0                     # Si
2    2    1    28.28131740174465        20.53400898869797        0.0                     # Si
3    3    1    29.995387617133748       20.53400898869797        0.0                     # Si
4    4    1    31.709358873443385       20.53400898869797        0.0                     # Si
5    5    1    33.42342908883248        20.53400898869797        0.0                     # Si
6    6    1    35.13740034514211        20.53400898869797        0.0                     # Si
7    7    1    36.851470560531205       20.53400898869797        0.0                     # Si
8    8    1    38.56544181684084        20.53400898869797        0.0                     # Si
9    9    1    40.27951203222994        20.53400898869797        0.0                     # Si
10   10   1    41.99348328853957        20.53400898869797        0.0                     # Si
11   11   1    43.707553503928665       20.53400898869797        0.0                     # Si
12   12   1    0.8569856281548165       20.53400898869797        0.0                     # Si
13   13   1    2.5710558435439133       20.53400898869797        0.0                     # Si
14   14   1    4.285027099853545        20.53400898869797        0.0                     # Si
15   15   1    5.999097315242643        20.53400898869797        0.0                     # Si
16   16   1    7.7130685715522755       20.53400898869797        0.0                     # Si
17   17   1    9.427138786941372        20.53400898869797        0.0                     # Si
18   18   1    11.141110043251006       20.53400898869797        0.0                     # Si
19   19   1    12.8551802586401         20.53400898869797        0.0                     # Si
20   20   1    14.569151514949734       20.53400898869797        0.0                     # Si
21   21   1    16.28322173033883        20.53400898869797        0.0                     # Si
22   22   1    17.99719298664846        20.53400898869797        0.0                     # Si
23   23   1    22.282319045581474       21.02880438601599        0.0                     # Si
24   24   1    23.996290301891104       21.02880438601599        0.0                     # Si
25   25   1    25.7103605172802         21.02880438601599        0.0                     # Si
26   26   1    27.424331773589838       21.02880438601599        0.0                     # Si
27   27   1    29.13840198897893        21.02880438601599        0.0                     # Si
28   28   1    30.852373245288565       21.02880438601599        0.0                     # Si
29   29   1    32.56644346067766        21.02880438601599        0.0                     # Si
30   30   1    34.280414716987295       21.02880438601599        0.0                     # Si
31   31   1    35.994484932376395       21.02880438601599        0.0                     # Si
32   32   1    37.70845618868602        21.02880438601599        0.0                     # Si
33   33   1    39.42252640407512        21.02880438601599        0.0                     # Si
34   34   1    41.136497660384755       21.02880438601599        0.0                     # Si
35   35   1    42.85056787577385        21.02880438601599        0.0                     # Si
36   36   1    44.56453913208348        21.02880438601599        0.0                     # Si
37   37   1    1.7140702153890965       21.02880438601599        0.0                     # Si
38   38   1    3.4280414716987297       21.02880438601599        0.0                     # Si
39   39   1    5.1421116870878265       21.02880438601599        0.0                     # Si
40   40   1    6.8560829433974595       21.02880438601599        0.0                     # Si
41   41   1    8.570153158786555        21.02880438601599        0.0                     # Si
42   42   1    10.284124415096189       21.02880438601599        0.0                     # Si
43   43   1    11.998194630485285       21.02880438601599        0.0                     # Si
44   44   1    13.712165886794919       21.02880438601599        0.0                     # Si
45   45   1    15.426236102184014       21.02880438601599        0.0                     # Si
46   46   1    17.140207358493647       21.02880438601599        0.0                     # Si
47   47   1    18.854277573882744       21.02880438601599        0.0                     # Si
48   48   1    20.568248830192378       21.02880438601599        0.0                     # Si
49   49   1    23.996290301891104       22.01839518065204        0.0                     # Si
50   50   1    25.7103605172802         22.01839518065204        0.0                     # Si
51   51   1    27.424331773589838       22.01839518065204        0.0                     # Si
52   52   1    29.13840198897893        22.01839518065204        0.0                     # Si
53   53   1    30.852373245288565       22.01839518065204        0.0                     # Si
54   54   1    32.56644346067766        22.01839518065204        0.0                     # Si
55   55   1    34.280414716987295       22.01839518065204        0.0                     # Si
56   56   1    35.994484932376395       22.01839518065204        0.0                     # Si
57   57   1    37.70845618868602        22.01839518065204        0.0                     # Si
58   58   1    39.42252640407512        22.01839518065204        0.0                     # Si
59   59   1    41.136497660384755       22.01839518065204        0.0                     # Si
60   60   1    42.85056787577385        22.01839518065204        0.0                     # Si
61   61   1    44.56453913208348        22.01839518065204        0.0                     # Si
62   62   1    1.7140702153890965       22.01839518065204        0.0                     # Si
63   63   1    3.4280414716987297       22.01839518065204        0.0                     # Si
64   64   1    5.1421116870878265       22.01839518065204        0.0                     # Si
65   65   1    6.8560829433974595       22.01839518065204        0.0                     # Si
66   66   1    8.570153158786555        22.01839518065204        0.0                     # Si
67   67   1    10.284124415096189       22.01839518065204        0.0                     # Si
68   68   1    11.998194630485285       22.01839518065204        0.0                     # Si
69   69   1    13.712165886794919       22.01839518065204        0.0                     # Si
70   70   1    15.426236102184014       22.01839518065204        0.0                     # Si
71   71   1    17.140207358493647       22.01839518065204        0.0                     # Si
72   72   1    18.854277573882744       22.01839518065204        0.0                     # Si
73   73   1    20.568248830192378       22.01839518065204        0.0                     # Si
74   74   1    22.282319045581474       22.01839518065204        0.0                     # Si
75   75   1    23.13930467373629        22.51319057797006        0.0                     # Si
76   76   1    24.85327593004592        22.51319057797006        0.0                     # Si
77   77   1    26.56734614543502        22.51319057797006        0.0                     # Si
78   78   1    28.28131740174465        22.51319057797006        0.0                     # Si
79   79   1    29.995387617133748       22.51319057797006        0.0                     # Si
80   80   1    31.709358873443385       22.51319057797006        0.0                     # Si
81   81   1    33.42342908883248        22.51319057797006        0.0                     # Si
82   82   1    35.13740034514211        22.51319057797006        0.0                     # Si
83   83   1    36.851470560531205       22.51319057797006        0.0                     # Si
84   84   1    38.56544181684084        22.51319057797006        0.0                     # Si
85   85   1    40.27951203222994        22.51319057797006        0.0                     # Si
86   86   1    41.99348328853957        22.51319057797006        0.0                     # Si
87   87   1    43.707553503928665       22.51319057797006        0.0                     # Si
88   88   1    0.8569856281548165       22.51319057797006        0.0                     # Si
89   89   1    2.5710558435439133       22.51319057797006        0.0                     # Si
90   90   1    4.285027099853545        22.51319057797006        0.0                     # Si
91   91   1    5.999097315242643        22.51319057797006        0.0                     # Si
92   92   1    7.7130685715522755       22.51319057797006        0.0                     # Si
93   93   1    9.427138786941372        22.51319057797006        0.0                     # Si
94   94   1    11.141110043251006       22.51319057797006        0.0                     # Si
95   95   1    12.8551802586401         22.51319057797006        0.0                     # Si
96   96   1    14.569151514949734       22.51319057797006        0.0                     # Si
97   97   1    16.28322173033883        22.51319057797006        0.0                     # Si
98   98   1    17.99719298664846        22.51319057797006        0.0                     # Si
99   99   1    19.71126320203756        22.51319057797006        0.0                     # Si
100  100  1    21.425234458347195       22.51319057797006        0.0                     # Si
101  101  1    23.13930467373629        23.50278137260611        0.0                     # Si
102  102  1    24.85327593004592        23.50278137260611        0.0                     # Si
103  103  1    26.56734614543502        23.50278137260611        0.0                     # Si
104  104  1    28.28131740174465        23.50278137260611        0.0                     # Si
105  105  1    29.995387617133748       23.50278137260611        0.0                     # Si
106  106  1    31.709358873443385       23.50278137260611        0.0                     # Si
107  107  1    33.42342908883248        23.50278137260611        0.0                     # Si
108  108  1    35.13740034514211        23.50278137260611        0.0                     # Si
109  109  1    36.851470560531205       23.50278137260611        0.0                     # Si
110  110  1    38.56544181684084        23.50278137260611        0.0                     # Si
111  111  1    40.27951203222994        23.50278137260611        0.0                     # Si
112  112  1    41.99348328853957        23.50278137260611        0.0                     # Si
113  113  1    43.707553503928665       23.50278137260611        0.0                     # Si
114  114  1    0.8569856281548165       23.50278137260611        0.0                     # Si
115  115  1    2.5710558435439133       23.50278137260611        0.0                     # Si
116  116  1    4.285027099853545        23.50278137260611        0.0                     # Si
117  117  1    5.999097315242643        23.50278137260611        0.0                     # Si
118  118  1    7.7130685715522755       23.50278137260611        0.0                     # Si
119  119  1    9.427138786941372        23.50278137260611        0.0                     # Si
120  120  1    11.141110043251006       23.50278137260611        0.0                     # Si
121  121  1    12.8551802586401         23.50278137260611        0.0                     # Si
122  122  1    14.569151514949734       23.50278137260611        0.0                     # Si
123  123  1    16.28322173033883        23.50278137260611        0.0                     # Si
124  124  1    17.99719298664846        23.50278137260611        0.0                     # Si
125  125  1    19.71126320203756        23.50278137260611        0.0                     # Si
126  126  1    21.425234458347195       23.50278137260611        0.0                     # Si
127  127  1    22.282319045581474       23.997576769924134       0.0                     # Si
128  128  1    23.996290301891104       23.997576769924134       0.0                     # Si
129  129  1    25.7103605172802         23.997576769924134       0.0                     # Si
130  130  1    27.424331773589838       23.997576769924134       0.0                     # Si
131  131  1    29.13840198897893        23.997576769924134       0.0                     # Si
132  132  1    30.852373245288565       23.997576769924134       0.0                     # Si
133  133  1    32.56644346067766        23.997576769924134       0.0                     # Si
134  134  1    34.280414716987295       23.997576769924134       0.0                     # Si
135  135  1    35.994484932376395       23.997576769924134       0.0                     # Si
136  136  1    37.70845618868602        23.997576769924134       0.0                     # Si
137  137  1    39.42252640407512        23.997576769924134       0.0                     # Si
138  138  1    41.136497660384755       23.997576769924134       0.0                     # Si
139  139  1    42.85056787577385        23.997576769924134       0.0                     # Si
140  140  1    44.56453913208348        23.997576769924134       0.0                     # Si
141  141  1    1.7140702153890965       23.997576769924134       0.0                     # Si
142  142  1    3.4280414716987297       23.997576769924134       0.0                     # Si
143  143  1    5.1421116870878265       23.997576769924134       0.0                     # Si
144  144  1    6.8560829433974595       23.997576769924134       0.0                     # Si
145  145  1    8.570153158786555        23.997576769924134       0.0                     # Si
146  146  1    10.284124415096189       23.997576769924134       0.0                     # Si
147  147  1    11.998194630485285       23.997576769924134       0.0                     # Si
148  148  1    13.712165886794919       23.997576769924134       0.0                     # Si
149  149  1    15.426236102184014       23.997576769924134       0.0                     # Si
150  150  1    17.140207358493647       23.997576769924134       0.0                     # Si
151  151  1    18.854277573882744       23.997576769924134       0.0                     # Si
152  152  1    20.568248830192378       23.997576769924134       0.0                     # Si
153  153  1    23.996290301891104       24.98716756456018        0.0                     # Si
154  154  1    25.7103605172802         24.98716756456018        0.0                     # Si
155  155  1    27.424331773589838       24.98716756456018        0.0                     # Si
156  156  1    29.13840198897893        24.98716756456018        0.0                     # Si
157  157  1    30.852373245288565       24.98716756456018        0.0                     # Si
158  158  1    32.56644346067766        24.98716756456018        0.0                     # Si
159  159  1    34.280414716987295       24.98716756456018        0.0                     # Si
160  160  1    35.994484932376395       24.98716756456018        0.0                     # Si
161  161  1    37.70845618868602        24.98716756456018        0.0                     # Si
162  162  1    39.42252640407512        24.98716756456018        0.0                     # Si
163  163  1    41.136497660384755       24.98716756456018        0.0                     # Si
164  164  1    42.85056787577385        24.98716756456018        0.0                     # Si
165  165  1    44.56453913208348        24.98716756456018        0.0                     # Si
166  166  1    1.7140702153890965       24.98716756456018        0.0                     # Si
167  167  1    3.4280414716987297       24.98716756456018        0.0                     # Si
168  168  1    5.1421116870878265       24.98716756456018        0.0                     # Si
169  169  1    6.8560829433974595       24.98716756456018        0.0                     # Si
170  170  1    8.570153158786555        24.98716756456018        0.0                     # Si
171  171  1    10.284124415096189       24.98716756456018        0.0                     # Si
172  172  1    11.998194630485285       24.98716756456018        0.0                     # Si
173  173  1    13.712165886794919       24.98716756456018        0.0                     # Si
174  174  1    15.426236102184014       24.98716756456018        0.0                     # Si
175  175  1    17.140207358493647       24.98716756456018        0.0                     # Si
176  176  1    18.854277573882744       24.98716756456018        0.0                     # Si
177  177  1    20.568248830192378       24.98716756456018        0.0                     # Si
178  178  1    22.282319045581474       24.98716756456018        0.0                     # Si
179  179  1    23.13930467373629        25.481962961878203       0.0                     # Si
180  180  1    24.85327593004592        25.481962961878203       0.0                     # Si
181  181  1    26.56734614543502        25.481962961878203       0.0                     # Si
182  182  1    28.28131740174465        25.481962961878203       0.0                     # Si
183  183  1    29.995387617133748       25.481962961878203       0.0                     # Si
184  184  1    31.709358873443385       25.481962961878203       0.0                     # Si
185  185  1    33.42342908883248        25.481962961878203       0.0                     # Si
186  186  1    35.13740034514211        25.481962961878203       0.0                     # Si
187  187  1    36.851470560531205       25.481962961878203       0.0                     # Si
188  188  1    38.56544181684084        25.481962961878203       0.0                     # Si
189  189  1    40.27951203222994        25.481962961878203       0.0                     # Si
190  190  1    41.99348328853957        25.481962961878203       0.0                     # Si
191  191  1    43.707553503928665       25.481962961878203       0.0                     # Si
192  192  1    0.8569856281548165       25.481962961878203       0.0                     # Si
193  193  1    2.5710558435439133       25.481962961878203       0.0                     # Si
194  194  1    4.285027099853545        25.481962961878203       0.0                     # Si
195  195  1    5.999097315242643        25.481962961878203       0.0                     # Si
196  196  1    7.7130685715522755       25.481962961878203       0.0                     # Si
197  197  1    9.427138786941372        25.481962961878203       0.0                     # Si
198  198  1    11.141110043251006       25.481962961878203       0.0                     # Si
199  199  1    12.8551802586401         25.481962961878203       0.0                     # Si
200  200  1    14.569151514949734       25.481962961878203       0.0                     # Si
201  201  1    16.28322173033883        25.481962961878203       0.0                     # Si
202  202  1    17.99719298664846        25.481962961878203       0.0                     # Si
203  203  1    19.71126320203756        25.481962961878203       0.0                     # Si
204  204  1    21.425234458347195       25.481962961878203       0.0                     # Si
205  205  1    23.13930467373629        26.47155375651425        0.0                     # Si
206  206  1    24.85327593004592        26.47155375651425        0.0                     # Si
207  207  1    26.56734614543502        26.47155375651425        0.0                     # Si
208  208  1    28.28131740174465        26.47155375651425        0.0                     # Si
209  209  1    29.995387617133748       26.47155375651425        0.0                     # Si
210  210  1    31.709358873443385       26.47155375651425        0.0                     # Si
211  211  1    33.42342908883248        26.47155375651425        0.0                     # Si
212  212  1    35.13740034514211        26.47155375651425        0.0                     # Si
213  213  1    36.851470560531205       26.47155375651425        0.0                     # Si
214  214  1    38.56544181684084        26.47155375651425        0.0                     # Si
215  215  1    40.27951203222994        26.47155375651425        0.0                     # Si
216  216  1    41.99348328853957        26.47155375651425        0.0                     # Si
217  217  1    43.707553503928665       26.47155375651425        0.0                     # Si
218  218  1    0.8569856281548165       26.47155375651425        0.0                     # Si
219  219  1    2.5710558435439133       26.47155375651425        0.0                     # Si
220  220  1    4.285027099853545        26.47155375651425        0.0                     # Si
221  221  1    5.999097315242643        26.47155375651425        0.0                     # Si
222  222  1    7.7130685715522755       26.47155375651425        0.0                     # Si
223  223  1    9.427138786941372        26.47155375651425        0.0                     # Si
224  224  1    11.141110043251006       26.47155375651425        0.0                     # Si
225  225  1    12.8551802586401         26.47155375651425        0.0                     # Si
226  226  1    14.569151514949734       26.47155375651425        0.0                     # Si
227  227  1    16.28322173033883        26.47155375651425        0.0                     # Si
228  228  1    17.99719298664846        26.47155375651425        0.0                     # Si
229  229  1    19.71126320203756        26.47155375651425        0.0                     # Si
230  230  1    21.425234458347195       26.47155375651425        0.0                     # Si
231  231  1    22.282319045581474       26.966349153832272       0.0                     # Si
232  232  1    23.996290301891104       26.966349153832272       0.0                     # Si
233  233  1    25.7103605172802         26.966349153832272       0.0                     # Si
234  234  1    27.424331773589838       26.966349153832272       0.0                     # Si
235  235  1    29.13840198897893        26.966349153832272       0.0                     # Si
236  236  1    30.852373245288565       26.966349153832272       0.0                     # Si
237  237  1    32.56644346067766        26.966349153832272       0.0                     # Si
238  238  1    34.280414716987295       26.966349153832272       0.0                     # Si
239  239  1    35.994484932376395       26.966349153832272       0.0                     # Si
240  240  1    37.70845618868602        26.966349153832272       0.0                     # Si
241  241  1    39.42252640407512        26.966349153832272       0.0                     # Si
242  242  1    41.136497660384755       26.966349153832272       0.0                     # Si
243  243  1    42.85056787577385        26.966349153832272       0.0                     # Si
244  244  1    44.56453913208348        26.966349153832272       0.0                     # Si
245  245  1    1.7140702153890965       26.966349153832272       0.0                     # Si
246  246  1    3.4280414716987297       26.966349153832272       0.0                     # Si
247  247  1    5.1421116870878265       26.966349153832272       0.0                     # Si
248  248  1    6.8560829433974595       26.966349153832272       0.0                     # Si
249  249  1    8.570153158786555        26.966349153832272       0.0                     # Si
250  250  1    10.284124415096189       26.966349153832272       0.0                     # Si
251  251  1    11.998194630485285       26.966349153832272       0.0                     # Si
252  252  1    13.712165886794919       26.966349153832272       0.0                     # Si
253  253  1    15.426236102184014       26.966349153832272       0.0                     # Si
254  254  1    17.140207358493647       26.966349153832272       0.0                     # Si
255  255  1    18.854277573882744       26.966349153832272       0.0                     # Si
256  256  1    20.568248830192378       26.966349153832272       0.0                     # Si
257  257  1    23.996290301891104       27.95593994846832        0.0                     # Si
258  258  1    25.7103605172802         27.95593994846832        0.0                     # Si
259  259  1    27.424331773589838       27.95593994846832        0.0                     # Si
260  260  1    29.13840198897893        27.95593994846832        0.0                     # Si
261  261  1    30.852373245288565       27.95593994846832        0.0                     # Si
262  262  1    32.56644346067766        27.95593994846832        0.0                     # Si
263  263  1    34.280414716987295       27.95593994846832        0.0                     # Si
264  264  1    35.994484932376395       27.95593994846832        0.0                     # Si
265  265  1    37.70845618868602        27.95593994846832        0.0                     # Si
266  266  1    39.42252640407512        27.95593994846832        0.0                     # Si
267  267  1    41.136497660384755       27.95593994846832        0.0                     # Si
268  268  1    42.85056787577385        27.95593994846832        0.0                     # Si
269  269  1    44.56453913208348        27.95593994846832        0.0                     # Si
270  270  1    1.7140702153890965       27.95593994846832        0.0                     # Si
271  271  1    3.4280414716987297       27.95593994846832        0.0                     # Si
272  272  1    5.1421116870878265       27.95593994846832        0.0                     # Si
273  273  1    6.8560829433974595       27.95593994846832        0.0                     # Si
274  274  1    8.570153158786555        27.95593994846832        0.0                     # Si
275  275  1    10.284124415096189       27.95593994846832        0.0                     # Si
276  276  1    11.998194630485285       27.95593994846832        0.0                     # Si
277  277  1    13.712165886794919       27.95593994846832        0.0                     # Si
278  278  1    15.426236102184014       27.95593994846832        0.0                     # Si
279  279  1    17.140207358493647       27.95593994846832        0.0                     # Si
280  280  1    18.854277573882744       27.95593994846832        0.0                     # Si
281  281  1    20.568248830192378       27.95593994846832        0.0                     # Si
282  282  1    22.282319045581474       27.95593994846832        0.0                     # Si
283  283  1    23.13930467373629        28.45073534578634        0.0                     # Si
284  284  1    24.85327593004592        28.45073534578634        0.0                     # Si
285  285  1    26.56734614543502        28.45073534578634        0.0                     # Si
286  286  1    28.28131740174465        28.45073534578634        0.0                     # Si
287  287  1    29.995387617133748       28.45073534578634        0.0                     # Si
288  288  1    31.709358873443385       28.45073534578634        0.0                     # Si
289  289  1    33.42342908883248        28.45073534578634        0.0                     # Si
290  290  1    35.13740034514211        28.45073534578634        0.0                     # Si
291  291  1    36.851470560531205       28.45073534578634        0.0                     # Si
292  292  1    38.56544181684084        28.45073534578634        0.0                     # Si
293  293  1    40.27951203222994        28.45073534578634        0.0                     # Si
294  294  1    41.99348328853957        28.45073534578634        0.0                     # Si
295  295  1    43.707553503928665       28.45073534578634        0.0                     # Si
296  296  1    0.8569856281548165       28.45073534578634        0.0                     # Si
297  297  1    2.5710558435439133       28.45073534578634        0.0                     # Si
298  298  1    4.285027099853545        28.45073534578634        0.0                     # Si
299  299  1    5.999097315242643        28.45073534578634        0.0                     # Si
300  300  1    7.7130685715522755       28.45073534578634        0.0                     # Si
301  301  1    9.427138786941372        28.45073534578634        0.0                     # Si
302  302  1    11.141110043251006       28.45073534578634        0.0                     # Si
303  303  1    12.8551802586401         28.45073534578634        0.0                     # Si
304  304  1    14.569151514949734       28.45073534578634        0.0                     # Si
305  305  1    16.28322173033883        28.45073534578634        0.0                     # Si
306  306  1    17.99719298664846        28.45073534578634        0.0                     # Si
307  307  1    19.71126320203756        28.45073534578634        0.0                     # Si
308  308  1    21.425234458347195       28.45073534578634        0.0                     # Si
309  309  1    23.13930467373629        29.44032614042239        0.0                     # Si
310  310  1    24.85327593004592        29.44032614042239        0.0                     # Si
311  311  1    26.56734614543502        29.44032614042239        0.0                     # Si
312  312  1    28.28131740174465        29.44032614042239        0.0                     # Si
313  313  1    29.995387617133748       29.44032614042239        0.0                     # Si
314  314  1    31.709358873443385       29.44032614042239        0.0                     # Si