DATA FILE Produced from netmc results (cf David Morley)
3310 atoms
7944 bonds
0 angles
0 dihedrals
0 impropers
2 atom types
2 bond types
0 angle types
0 dihedral types
0 improper types
0.00000 255.50433189526527 xlo xhi
0.00000 221.27324218250183 ylo yhi

# Pair Coeffs
#
# 1  O
# 2  Si

# Bond Coeffs
# 
# 1  O-O
# 2  Si-O
# 3  O-O rep
# 4  Si-Si rep

 Masses

1 28.10000 # O 
2 32.01000 # Si

 Atoms # molecular

1    1    2    152.3199609801331        117.72871218684392       5.0                      # Si
2    2    2    162.14676240218674       117.72871218684392       5.0                      # Si
3    3    2    171.97413119152807       117.72871218684392       5.0                      # Si
4    4    2    181.80093261358175       117.72871218684392       5.0                      # Si
5    5    2    191.62830140292306       117.72871218684392       5.0                      # Si
6    6    2    201.45510282497673       117.72871218684392       5.0                      # Si
7    7    2    211.282471614318         117.72871218684392       5.0                      # Si
8    8    2    221.1092730363717        117.72871218684392       5.0                      # Si
9    9    2    230.93664182571302       117.72871218684392       5.0                      # Si
10   10   2    240.7634432477667        117.72871218684392       5.0                      # Si
11   11   2    250.590812037108         117.72871218684392       5.0                      # Si
12   12   2    4.913400711026836        117.72871218684392       5.0                      # Si
13   13   2    14.740769500368154       117.72871218684392       5.0                      # Si
14   14   2    24.567570922421822       117.72871218684392       5.0                      # Si
15   15   2    34.39493971176314        117.72871218684392       5.0                      # Si
16   16   2    44.22174113381681        117.72871218684392       5.0                      # Si
17   17   2    54.049109923158134       117.72871218684392       5.0                      # Si
18   18   2    63.875911345211804       117.72871218684392       5.0                      # Si
19   19   2    73.70328013455311        117.72871218684392       5.0                      # Si
20   20   2    83.53008155660679        117.72871218684392       5.0                      # Si
21   21   2    93.35745034594811        117.72871218684392       5.0                      # Si
22   22   2    103.18425176800176       117.72871218684392       5.0                      # Si
23   23   2    127.75239005771125       120.56554862508112       5.0                      # Si
24   24   2    137.57919147976492       120.56554862508112       5.0                      # Si
25   25   2    147.40656026910622       120.56554862508112       5.0                      # Si
26   26   2    157.23336169115993       120.56554862508112       5.0                      # Si
27   27   2    167.06073048050123       120.56554862508112       5.0                      # Si
28   28   2    176.88753190255488       120.56554862508112       5.0                      # Si
29   29   2    186.71490069189622       120.56554862508112       5.0                      # Si
30   30   2    196.5417021139499        120.56554862508112       5.0                      # Si
31   31   2    206.36907090329123       120.56554862508112       5.0                      # Si
32   32   2    216.19587232534485       120.56554862508112       5.0                      # Si
33   33   2    226.0232411146862        120.56554862508112       5.0                      # Si
34   34   2    235.85004253673986       120.56554862508112       5.0                      # Si
35   35   2    245.67741132608117       120.56554862508112       5.0                      # Si
36   36   2    255.50421274813485       120.56554862508112       5.0                      # Si
37   37   2    9.827368789341318        120.56554862508112       5.0                      # Si
38   38   2    19.65417021139499        120.56554862508112       5.0                      # Si
39   39   2    29.48153900073631        120.56554862508112       5.0                      # Si
40   40   2    39.30834042278998        120.56554862508112       5.0                      # Si
41   41   2    49.135709212131296       120.56554862508112       5.0                      # Si
42   42   2    58.962510634184966       120.56554862508112       5.0                      # Si
43   43   2    68.78987942352629        120.56554862508112       5.0                      # Si
44   44   2    78.61668084557996        120.56554862508112       5.0                      # Si
45   45   2    88.44404963492127        120.56554862508112       5.0                      # Si
46   46   2    98.27085105697495        120.56554862508112       5.0                      # Si
47   47   2    108.09821984631627       120.56554862508112       5.0                      # Si
48   48   2    117.92502126836993       120.56554862508112       5.0                      # Si
49   49   2    137.57919147976492       126.23922150155552       5.0                      # Si
50   50   2    147.40656026910622       126.23922150155552       5.0                      # Si
51   51   2    157.23336169115993       126.23922150155552       5.0                      # Si
52   52   2    167.06073048050123       126.23922150155552       5.0                      # Si
53   53   2    176.88753190255488       126.23922150155552       5.0                      # Si
54   54   2    186.71490069189622       126.23922150155552       5.0                      # Si
55   55   2    196.5417021139499        126.23922150155552       5.0                      # Si
56   56   2    206.36907090329123       126.23922150155552       5.0                      # Si
57   57   2    216.19587232534485       126.23922150155552       5.0                      # Si
58   58   2    226.0232411146862        126.23922150155552       5.0                      # Si
59   59   2    235.85004253673986       126.23922150155552       5.0                      # Si
60   60   2    245.67741132608117       126.23922150155552       5.0                      # Si
61   61   2    255.50421274813485       126.23922150155552       5.0                      # Si
62   62   2    9.827368789341318        126.23922150155552       5.0                      # Si
63   63   2    19.65417021139499        126.23922150155552       5.0                      # Si
64   64   2    29.48153900073631        126.23922150155552       5.0                      # Si
65   65   2    39.30834042278998        126.23922150155552       5.0                      # Si
66   66   2    49.135709212131296       126.23922150155552       5.0                      # Si
67   67   2    58.962510634184966       126.23922150155552       5.0                      # Si
68   68   2    68.78987942352629        126.23922150155552       5.0                      # Si
69   69   2    78.61668084557996        126.23922150155552       5.0                      # Si
70   70   2    88.44404963492127        126.23922150155552       5.0                      # Si
71   71   2    98.27085105697495        126.23922150155552       5.0                      # Si
72   72   2    108.09821984631627       126.23922150155552       5.0                      # Si
73   73   2    117.92502126836993       126.23922150155552       5.0                      # Si
74   74   2    127.75239005771125       126.23922150155552       5.0                      # Si
75   75   2    132.6657907687381        129.07605793979272       5.0                      # Si
76   76   2    142.49259219079175       129.07605793979272       5.0                      # Si
77   77   2    152.3199609801331        129.07605793979272       5.0                      # Si
78   78   2    162.14676240218674       129.07605793979272       5.0                      # Si
79   79   2    171.97413119152807       129.07605793979272       5.0                      # Si
80   80   2    181.80093261358175       129.07605793979272       5.0                      # Si
81   81   2    191.62830140292306       129.07605793979272       5.0                      # Si
82   82   2    201.45510282497673       129.07605793979272       5.0                      # Si
83   83   2    211.282471614318         129.07605793979272       5.0                      # Si
84   84   2    221.1092730363717        129.07605793979272       5.0                      # Si
85   85   2    230.93664182571302       129.07605793979272       5.0                      # Si
86   86   2    240.7634432477667        129.07605793979272       5.0                      # Si
87   87   2    250.590812037108         129.07605793979272       5.0                      # Si
88   88   2    4.913400711026836        129.07605793979272       5.0                      # Si
89   89   2    14.740769500368154       129.07605793979272       5.0                      # Si
90   90   2    24.567570922421822       129.07605793979272       5.0                      # Si
91   91   2    34.39493971176314        129.07605793979272       5.0                      # Si
92   92   2    44.22174113381681        129.07605793979272       5.0                      # Si
93   93   2    54.049109923158134       129.07605793979272       5.0                      # Si
94   94   2    63.875911345211804       129.07605793979272       5.0                      # Si
95   95   2    73.70328013455311        129.07605793979272       5.0                      # Si
96   96   2    83.53008155660679        129.07605793979272       5.0                      # Si
97   97   2    93.35745034594811        129.07605793979272       5.0                      # Si
98   98   2    103.18425176800176       129.07605793979272       5.0                      # Si
99   99   2    113.0116205573431        129.07605793979272       5.0                      # Si
100  100  2    122.83842197939677       129.07605793979272       5.0                      # Si
101  101  2    132.6657907687381        134.74973081626712       5.0                      # Si
102  102  2    142.49259219079175       134.74973081626712       5.0                      # Si
103  103  2    152.3199609801331        134.74973081626712       5.0                      # Si
104  104  2    162.14676240218674       134.74973081626712       5.0                      # Si
105  105  2    171.97413119152807       134.74973081626712       5.0                      # Si
106  106  2    181.80093261358175       134.74973081626712       5.0                      # Si
107  107  2    191.62830140292306       134.74973081626712       5.0                      # Si
108  108  2    201.45510282497673       134.74973081626712       5.0                      # Si
109  109  2    211.282471614318         134.74973081626712       5.0                      # Si
110  110  2    221.1092730363717        134.74973081626712       5.0                      # Si
111  111  2    230.93664182571302       134.74973081626712       5.0                      # Si
112  112  2    240.7634432477667        134.74973081626712       5.0                      # Si
113  113  2    250.590812037108         134.74973081626712       5.0                      # Si
114  114  2    4.913400711026836        134.74973081626712       5.0                      # Si
115  115  2    14.740769500368154       134.74973081626712       5.0                      # Si
116  116  2    24.567570922421822       134.74973081626712       5.0                      # Si
117  117  2    34.39493971176314        134.74973081626712       5.0                      # Si
118  118  2    44.22174113381681        134.74973081626712       5.0                      # Si
119  119  2    54.049109923158134       134.74973081626712       5.0                      # Si
120  120  2    63.875911345211804       134.74973081626712       5.0                      # Si
121  121  2    73.70328013455311        134.74973081626712       5.0                      # Si
122  122  2    83.53008155660679        134.74973081626712       5.0                      # Si
123  123  2    93.35745034594811        134.74973081626712       5.0                      # Si
124  124  2    103.18425176800176       134.74973081626712       5.0                      # Si
125  125  2    113.0116205573431        134.74973081626712       5.0                      # Si
126  126  2    122.83842197939677       134.74973081626712       5.0                      # Si
127  127  2    127.75239005771125       137.58656725450433       5.0                      # Si
128  128  2    137.57919147976492       137.58656725450433       5.0                      # Si
129  129  2    147.40656026910622       137.58656725450433       5.0                      # Si
130  130  2    157.23336169115993       137.58656725450433       5.0                      # Si
131  131  2    167.06073048050123       137.58656725450433       5.0                      # Si
132  132  2    176.88753190255488       137.58656725450433       5.0                      # Si
133  133  2    186.71490069189622       137.58656725450433       5.0                      # Si
134  134  2    196.5417021139499        137.58656725450433       5.0                      # Si
135  135  2    206.36907090329123       137.58656725450433       5.0                      # Si
136  136  2    216.19587232534485       137.58656725450433       5.0                      # Si
137  137  2    226.0232411146862        137.58656725450433       5.0                      # Si
138  138  2    235.85004253673986       137.58656725450433       5.0                      # Si
139  139  2    245.67741132608117       137.58656725450433       5.0                      # Si
140  140  2    255.50421274813485       137.58656725450433       5.0                      # Si
141  141  2    9.827368789341318        137.58656725450433       5.0                      # Si
142  142  2    19.65417021139499        137.58656725450433       5.0                      # Si
143  143  2    29.48153900073631        137.58656725450433       5.0                      # Si
144  144  2    39.30834042278998        137.58656725450433       5.0                      # Si
145  145  2    49.135709212131296       137.58656725450433       5.0                      # Si
146  146  2    58.962510634184966       137.58656725450433       5.0                      # Si
147  147  2    68.78987942352629        137.58656725450433       5.0                      # Si
148  148  2    78.61668084557996        137.58656725450433       5.0                      # Si
149  149  2    88.44404963492127        137.58656725450433       5.0                      # Si
150  150  2    98.27085105697495        137.58656725450433       5.0                      # Si
151  151  2    108.09821984631627       137.58656725450433       5.0                      # Si
152  152  2    117.92502126836993       137.58656725450433       5.0                      # Si
153  153  2    137.57919147976492       143.26024013097876       5.0                      # Si
154  154  2    147.40656026910622       143.26024013097876       5.0                      # Si
155  155  2    157.23336169115993       143.26024013097876       5.0                      # Si
156  156  2    167.06073048050123       143.26024013097876       5.0                      # Si
157  157  2    176.88753190255488       143.26024013097876       5.0                      # Si
158  158  2    186.71490069189622       143.26024013097876       5.0                      # Si
159  159  2    196.5417021139499        143.26024013097876       5.0                      # Si
160  160  2    206.36907090329123       143.26024013097876       5.0                      # Si
161  161  2    216.19587232534485       143.26024013097876       5.0                      # Si
162  162  2    226.0232411146862        143.26024013097876       5.0                      # Si
163  163  2    235.85004253673986       143.26024013097876       5.0                      # Si
164  164  2    245.67741132608117       143.26024013097876       5.0                      # Si
165  165  2    255.50421274813485       143.26024013097876       5.0                      # Si
166  166  2    9.827368789341318        143.26024013097876       5.0                      # Si
167  167  2    19.65417021139499        143.26024013097876       5.0                      # Si
168  168  2    29.48153900073631        143.26024013097876       5.0                      # Si
169  169  2    39.30834042278998        143.26024013097876       5.0                      # Si
170  170  2    49.135709212131296       143.26024013097876       5.0                      # Si
171  171  2    58.962510634184966       143.26024013097876       5.0                      # Si
172  172  2    68.78987942352629        143.26024013097876       5.0                      # Si
173  173  2    78.61668084557996        143.26024013097876       5.0                      # Si
174  174  2    88.44404963492127        143.26024013097876       5.0                      # Si
175  175  2    98.27085105697495        143.26024013097876       5.0                      # Si
176  176  2    108.09821984631627       143.26024013097876       5.0                      # Si
177  177  2    117.92502126836993       143.26024013097876       5.0                      # Si
178  178  2    127.75239005771125       143.26024013097876       5.0                      # Si
179  179  2    132.6657907687381        146.09707656921594       5.0                      # Si
180  180  2    142.49259219079175       146.09707656921594       5.0                      # Si
181  181  2    152.3199609801331        146.09707656921594       5.0                      # Si
182  182  2    162.14676240218674       146.09707656921594       5.0                      # Si
183  183  2    171.97413119152807       146.09707656921594       5.0                      # Si
184  184  2    181.80093261358175       146.09707656921594       5.0                      # Si
185  185  2    191.62830140292306       146.09707656921594       5.0                      # Si
186  186  2    201.45510282497673       146.09707656921594       5.0                      # Si
187  187  2    211.282471614318         146.09707656921594       5.0                      # Si
188  188  2    221.1092730363717        146.09707656921594       5.0                      # Si
189  189  2    230.93664182571302       146.09707656921594       5.0                      # Si
190  190  2    240.7634432477667        146.09707656921594       5.0                      # Si
191  191  2    250.590812037108         146.09707656921594       5.0                      # Si
192  192  2    4.913400711026836        146.09707656921594       5.0                      # Si
193  193  2    14.740769500368154       146.09707656921594       5.0                      # Si
194  194  2    24.567570922421822       146.09707656921594       5.0                      # Si
195  195  2    34.39493971176314        146.09707656921594       5.0                      # Si
196  196  2    44.22174113381681        146.09707656921594       5.0                      # Si
197  197  2    54.049109923158134       146.09707656921594       5.0                      # Si
198  198  2    63.875911345211804       146.09707656921594       5.0                      # Si
199  199  2    73.70328013455311        146.09707656921594       5.0                      # Si
200  200  2    83.53008155660679        146.09707656921594       5.0                      # Si
201  201  2    93.35745034594811        146.09707656921594       5.0                      # Si
202  202  2    103.18425176800176       146.09707656921594       5.0                      # Si
203  203  2    113.0116205573431        146.09707656921594       5.0                      # Si
204  204  2    122.83842197939677       146.09707656921594       5.0                      # Si
205  205  2    132.6657907687381        151.77074944569037       5.0                      # Si
206  206  2    142.49259219079175       151.77074944569037       5.0                      # Si
207  207  2    152.3199609801331        151.77074944569037       5.0                      # Si
208  208  2    162.14676240218674       151.77074944569037       5.0                      # Si
209  209  2    171.97413119152807       151.77074944569037       5.0                      # Si
210  210  2    181.80093261358175       151.77074944569037       5.0                      # Si
211  211  2    191.62830140292306       151.77074944569037       5.0                      # Si
212  212  2    201.45510282497673       151.77074944569037       5.0                      # Si
213  213  2    211.282471614318         151.77074944569037       5.0                      # Si
214  214  2    221.1092730363717        151.77074944569037       5.0                      # Si
215  215  2    230.93664182571302       151.77074944569037       5.0                      # Si
216  216  2    240.7634432477667        151.77074944569037       5.0                      # Si
217  217  2    250.590812037108         151.77074944569037       5.0                      # Si
218  218  2    4.913400711026836        151.77074944569037       5.0                      # Si
219  219  2    14.740769500368154       151.77074944569037       5.0                      # Si
220  220  2    24.567570922421822       151.77074944569037       5.0                      # Si
221  221  2    34.39493971176314        151.77074944569037       5.0                      # Si
222  222  2    44.22174113381681        151.77074944569037       5.0                      # Si
223  223  2    54.049109923158134       151.77074944569037       5.0                      # Si
224  224  2    63.875911345211804       151.77074944569037       5.0                      # Si
225  225  2    73.70328013455311        151.77074944569037       5.0                      # Si
226  226  2    83.53008155660679        151.77074944569037       5.0                      # Si
227  227  2    93.35745034594811        151.77074944569037       5.0                      # Si
228  228  2    103.18425176800176       151.77074944569037       5.0                      # Si
229  229  2    113.0116205573431        151.77074944569037       5.0                      # Si
230  230  2    122.83842197939677       151.77074944569037       5.0                      # Si
231  231  2    127.75239005771125       154.60758588392756       5.0                      # Si
232  232  2    137.57919147976492       154.60758588392756       5.0                      # Si
233  233  2    147.40656026910622       154.60758588392756       5.0                      # Si
234  234  2    157.23336169115993       154.60758588392756       5.0                      # Si
235  235  2    167.06073048050123       154.60758588392756       5.0                      # Si
236  236  2    176.88753190255488       154.60758588392756       5.0                      # Si
237  237  2    186.71490069189622       154.60758588392756       5.0                      # Si
238  238  2    196.5417021139499        154.60758588392756       5.0                      # Si
239  239  2    206.36907090329123       154.60758588392756       5.0                      # Si
240  240  2    216.19587232534485       154.60758588392756       5.0                      # Si
241  241  2    226.0232411146862        154.60758588392756       5.0                      # Si
242  242  2    235.85004253673986       154.60758588392756       5.0                      # Si
243  243  2    245.67741132608117       154.60758588392756       5.0                      # Si
244  244  2    255.50421274813485       154.60758588392756       5.0                      # Si
245  245  2    9.827368789341318        154.60758588392756       5.0                      # Si
246  246  2    19.65417021139499        154.60758588392756       5.0                      # Si
247  247  2    29.48153900073631        154.60758588392756       5.0                      # Si
248  248  2    39.30834042278998        154.60758588392756       5.0                      # Si
249  249  2    49.135709212131296       154.60758588392756       5.0                      # Si
250  250  2    58.962510634184966       154.60758588392756       5.0                      # Si
251  251  2    68.78987942352629        154.60758588392756       5.0                      # Si
252  252  2    78.61668084557996        154.60758588392756       5.0                      # Si
253  253  2    88.44404963492127        154.60758588392756       5.0                      # Si
254  254  2    98.27085105697495        154.60758588392756       5.0                      # Si
255  255  2    108.09821984631627       154.60758588392756       5.0                      # Si
256  256  2    117.92502126836993       154.60758588392756       5.0                      # Si
257  257  2    137.57919147976492       160.28125876040195       5.0                      # Si
258  258  2    147.40656026910622       160.28125876040195       5.0                      # Si
259  259  2    157.23336169115993       160.28125876040195       5.0                      # Si
260  260  2    167.06073048050123       160.28125876040195       5.0                      # Si
261  261  2    176.88753190255488       160.28125876040195       5.0                      # Si
262  262  2    186.71490069189622       160.28125876040195       5.0                      # Si
263  263  2    196.5417021139499        160.28125876040195       5.0                      # Si
264  264  2    206.36907090329123       160.28125876040195       5.0                      # Si
265  265  2    216.19587232534485       160.28125876040195       5.0                      # Si
266  266  2    226.0232411146862        160.28125876040195       5.0                      # Si
267  267  2    235.85004253673986       160.28125876040195       5.0                      # Si
268  268  2    245.67741132608117       160.28125876040195       5.0                      # Si
269  269  2    255.50421274813485       160.28125876040195       5.0                      # Si
270  270  2    9.827368789341318        160.28125876040195       5.0                      # Si
271  271  2    19.65417021139499        160.28125876040195       5.0                      # Si
272  272  2    29.48153900073631        160.28125876040195       5.0                      # Si
273  273  2    39.30834042278998        160.28125876040195       5.0                      # Si
274  274  2    49.135709212131296       160.28125876040195       5.0                      # Si
275  275  2    58.962510634184966       160.28125876040195       5.0                      # Si
276  276  2    68.78987942352629        160.28125876040195       5.0                      # Si
277  277  2    78.61668084557996        160.28125876040195       5.0                      # Si
278  278  2    88.44404963492127        160.28125876040195       5.0                      # Si
279  279  2    98.27085105697495        160.28125876040195       5.0                      # Si
280  280  2    108.09821984631627       160.28125876040195       5.0                      # Si
281  281  2    117.92502126836993       160.28125876040195       5.0                      # Si
282  282  2    127.75239005771125       160.28125876040195       5.0                      # Si
283  283  2    132.6657907687381        163.11809519863917       5.0                      # Si
284  284  2    142.49259219079175       163.11809519863917       5.0                      # Si
285  285  2    152.3199609801331        163.11809519863917       5.0                      # Si
286  286  2    162.14676240218674       163.11809519863917       5.0                      # Si
287  287  2    171.97413119152807       163.11809519863917       5.0                      # Si
288  288  2    181.80093261358175       163.11809519863917       5.0                      # Si
289  289  2    191.62830140292306       163.11809519863917       5.0                      # Si
290  290  2    201.45510282497673       163.11809519863917       5.0                      # Si
291  291  2    211.282471614318         163.11809519863917       5.0                      # Si
292  292  2    221.1092730363717        163.11809519863917       5.0                      # Si
293  293  2    230.93664182571302       163.11809519863917       5.0                      # Si
294  294  2    240.7634432477667        163.11809519863917       5.0                      # Si
295  295  2    250.590812037108         163.11809519863917       5.0                      # Si
296  296  2    4.913400711026836        163.11809519863917       5.0                      # Si
297  297  2    14.740769500368154       163.11809519863917       5.0                      # Si
298  298  2    24.567570922421822       163.11809519863917       5.0                      # Si
299  299  2    34.39493971176314        163.11809519863917       5.0                      # Si
300  300  2    44.22174113381681        163.11809519863917       5.0                      # Si
301  301  2    54.049109923158134       163.11809519863917       5.0                      # Si
302  302  2    63.875911345211804       163.11809519863917       5.0                      # Si
303  303  2    73.70328013455311        163.11809519863917       5.0                      # Si
304  304  2    83.53008155660679        163.11809519863917       5.0                      # Si
305  305  2    93.35745034594811        163.11809519863917       5.0                      # Si
306  306  2    103.18425176800176       163.11809519863917       5.0                      # Si
307  307  2    113.0116205573431        163.11809519863917       5.0                      # Si
308  308  2    122.83842197939677       163.11809519863917       5.0                      # Si
309  309  2    132.6657907687381        168.79176807511357       5.0                      # Si
310  310  2    142.49259219079175       168.79176807511357       5.0                      # Si
311  311  2    152.3199609801331        168.79176807511357       5.0                      # Si