DATA FILE Produced from netmc results (cf David Morley)
440 atoms
660 bonds
1320 angles
0 dihedrals
0 impropers
1 atom types
1 bond types
1 angle types
0 dihedral types
0 improper types
0.00000 28.74766851 xlo xhi
0.00000 24.93219058 ylo yhi

# Pair Coeffs
#
# 1  Si

# Bond Coeffs
# 
# 1  Si-Si

# Angle Coeffs
# 
# 1  Si-Si-Si

 Masses

1 32.01000 # Si

 Atoms # molecular

1    1    1    22.45907956              13.76464688              0.0                     # Si
2    2    1    24.25585986              13.76464688              0.0                     # Si
3    3    1    26.05253643              13.76464688              0.0                     # Si
4    4    1    27.84931674              13.76464688              0.0                     # Si
5    5    1    0.89833829               13.76464688              0.0                     # Si
6    6    1    2.69511859               13.76464688              0.0                     # Si
7    7    1    4.49179516               13.76464688              0.0                     # Si
8    8    1    6.28857547               13.76464688              0.0                     # Si
9    9    1    8.08525204               13.76464688              0.0                     # Si
10   10   1    21.56074127              14.28406752              0.0                     # Si
11   11   1    23.35752158              14.28406752              0.0                     # Si
12   12   1    25.15419815              14.28406752              0.0                     # Si
13   13   1    26.95097846              14.28406752              0.0                     # Si
14   14   1    28.74765503              14.28406752              0.0                     # Si
15   15   1    1.79678031               14.28406752              0.0                     # Si
16   16   1    3.59345688               14.28406752              0.0                     # Si
17   17   1    5.39023718               14.28406752              0.0                     # Si
18   18   1    7.18691376               14.28406752              0.0                     # Si
19   19   1    8.98369406               14.28406752              0.0                     # Si
20   20   1    21.56074127              15.32290879              0.0                     # Si
21   21   1    23.35752158              15.32290879              0.0                     # Si
22   22   1    25.15419815              15.32290879              0.0                     # Si
23   23   1    26.95097846              15.32290879              0.0                     # Si
24   24   1    28.74765503              15.32290879              0.0                     # Si
25   25   1    1.79678031               15.32290879              0.0                     # Si
26   26   1    3.59345688               15.32290879              0.0                     # Si
27   27   1    5.39023718               15.32290879              0.0                     # Si
28   28   1    7.18691376               15.32290879              0.0                     # Si
29   29   1    8.98369406               15.32290879              0.0                     # Si
30   30   1    22.45907956              15.84232943              0.0                     # Si
31   31   1    24.25585986              15.84232943              0.0                     # Si
32   32   1    26.05253643              15.84232943              0.0                     # Si
33   33   1    27.84931674              15.84232943              0.0                     # Si
34   34   1    0.89833829               15.84232943              0.0                     # Si
35   35   1    2.69511859               15.84232943              0.0                     # Si
36   36   1    4.49179516               15.84232943              0.0                     # Si
37   37   1    6.28857547               15.84232943              0.0                     # Si
38   38   1    8.08525204               15.84232943              0.0                     # Si
39   39   1    20.66240298              16.88117071              0.0                     # Si
40   40   1    22.45907956              16.88117071              0.0                     # Si
41   41   1    24.25585986              16.88117071              0.0                     # Si
42   42   1    26.05253643              16.88117071              0.0                     # Si
43   43   1    27.84931674              16.88117071              0.0                     # Si
44   44   1    0.89833829               16.88117071              0.0                     # Si
45   45   1    2.69511859               16.88117071              0.0                     # Si
46   46   1    4.49179516               16.88117071              0.0                     # Si
47   47   1    6.28857547               16.88117071              0.0                     # Si
48   48   1    8.08525204               16.88117071              0.0                     # Si
49   49   1    9.88203235               16.88117071              0.0                     # Si
50   50   1    21.56074127              17.40059134              0.0                     # Si
51   51   1    23.35752158              17.40059134              0.0                     # Si
52   52   1    25.15419815              17.40059134              0.0                     # Si
53   53   1    26.95097846              17.40059134              0.0                     # Si
54   54   1    28.74765503              17.40059134              0.0                     # Si
55   55   1    1.79678031               17.40059134              0.0                     # Si
56   56   1    3.59345688               17.40059134              0.0                     # Si
57   57   1    5.39023718               17.40059134              0.0                     # Si
58   58   1    7.18691376               17.40059134              0.0                     # Si
59   59   1    8.98369406               17.40059134              0.0                     # Si
60   60   1    19.7640647               18.43943262              0.0                     # Si
61   61   1    21.56074127              18.43943262              0.0                     # Si
62   62   1    23.35752158              18.43943262              0.0                     # Si
63   63   1    25.15419815              18.43943262              0.0                     # Si
64   64   1    26.95097846              18.43943262              0.0                     # Si
65   65   1    28.74765503              18.43943262              0.0                     # Si
66   66   1    1.79678031               18.43943262              0.0                     # Si
67   67   1    3.59345688               18.43943262              0.0                     # Si
68   68   1    5.39023718               18.43943262              0.0                     # Si
69   69   1    7.18691376               18.43943262              0.0                     # Si
70   70   1    8.98369406               18.43943262              0.0                     # Si
71   71   1    10.78037064              18.43943262              0.0                     # Si
72   72   1    20.66240298              18.95885325              0.0                     # Si
73   73   1    22.45907956              18.95885325              0.0                     # Si
74   74   1    24.25585986              18.95885325              0.0                     # Si
75   75   1    26.05253643              18.95885325              0.0                     # Si
76   76   1    27.84931674              18.95885325              0.0                     # Si
77   77   1    0.89833829               18.95885325              0.0                     # Si
78   78   1    2.69511859               18.95885325              0.0                     # Si
79   79   1    4.49179516               18.95885325              0.0                     # Si
80   80   1    6.28857547               18.95885325              0.0                     # Si
81   81   1    8.08525204               18.95885325              0.0                     # Si
82   82   1    9.88203235               18.95885325              0.0                     # Si
83   83   1    18.86562268              19.99769453              0.0                     # Si
84   84   1    20.66240298              19.99769453              0.0                     # Si
85   85   1    22.45907956              19.99769453              0.0                     # Si
86   86   1    24.25585986              19.99769453              0.0                     # Si
87   87   1    26.05253643              19.99769453              0.0                     # Si
88   88   1    27.84931674              19.99769453              0.0                     # Si
89   89   1    0.89833829               19.99769453              0.0                     # Si
90   90   1    2.69511859               19.99769453              0.0                     # Si
91   91   1    4.49179516               19.99769453              0.0                     # Si
92   92   1    6.28857547               19.99769453              0.0                     # Si
93   93   1    8.08525204               19.99769453              0.0                     # Si
94   94   1    9.88203235               19.99769453              0.0                     # Si
95   95   1    11.67870892              19.99769453              0.0                     # Si
96   96   1    14.37382751              20.51711517              0.0                     # Si
97   97   1    16.17060782              20.51711517              0.0                     # Si
98   98   1    17.96728439              20.51711517              0.0                     # Si
99   99   1    19.7640647               20.51711517              0.0                     # Si
100  100  1    21.56074127              20.51711517              0.0                     # Si
101  101  1    23.35752158              20.51711517              0.0                     # Si
102  102  1    25.15419815              20.51711517              0.0                     # Si
103  103  1    26.95097846              20.51711517              0.0                     # Si
104  104  1    28.74765503              20.51711517              0.0                     # Si
105  105  1    1.79678031               20.51711517              0.0                     # Si
106  106  1    3.59345688               20.51711517              0.0                     # Si
107  107  1    5.39023718               20.51711517              0.0                     # Si
108  108  1    7.18691376               20.51711517              0.0                     # Si
109  109  1    8.98369406               20.51711517              0.0                     # Si
110  110  1    10.78037064              20.51711517              0.0                     # Si
111  111  1    12.57715094              20.51711517              0.0                     # Si
112  112  1    16.17060782              21.55595644              0.0                     # Si
113  113  1    17.96728439              21.55595644              0.0                     # Si
114  114  1    19.7640647               21.55595644              0.0                     # Si
115  115  1    21.56074127              21.55595644              0.0                     # Si
116  116  1    23.35752158              21.55595644              0.0                     # Si
117  117  1    25.15419815              21.55595644              0.0                     # Si
118  118  1    26.95097846              21.55595644              0.0                     # Si
119  119  1    28.74765503              21.55595644              0.0                     # Si
120  120  1    1.79678031               21.55595644              0.0                     # Si
121  121  1    3.59345688               21.55595644              0.0                     # Si
122  122  1    5.39023718               21.55595644              0.0                     # Si
123  123  1    7.18691376               21.55595644              0.0                     # Si
124  124  1    8.98369406               21.55595644              0.0                     # Si
125  125  1    10.78037064              21.55595644              0.0                     # Si
126  126  1    12.57715094              21.55595644              0.0                     # Si
127  127  1    14.37382751              21.55595644              0.0                     # Si
128  128  1    15.2721658               22.07537708              0.0                     # Si
129  129  1    17.06894611              22.07537708              0.0                     # Si
130  130  1    18.86562268              22.07537708              0.0                     # Si
131  131  1    20.66240298              22.07537708              0.0                     # Si
132  132  1    22.45907956              22.07537708              0.0                     # Si
133  133  1    24.25585986              22.07537708              0.0                     # Si
134  134  1    26.05253643              22.07537708              0.0                     # Si
135  135  1    27.84931674              22.07537708              0.0                     # Si
136  136  1    0.89833829               22.07537708              0.0                     # Si
137  137  1    2.69511859               22.07537708              0.0                     # Si
138  138  1    4.49179516               22.07537708              0.0                     # Si
139  139  1    6.28857547               22.07537708              0.0                     # Si
140  140  1    8.08525204               22.07537708              0.0                     # Si
141  141  1    9.88203235               22.07537708              0.0                     # Si
142  142  1    11.67870892              22.07537708              0.0                     # Si
143  143  1    13.47548923              22.07537708              0.0                     # Si
144  144  1    15.2721658               23.11421835              0.0                     # Si
145  145  1    17.06894611              23.11421835              0.0                     # Si
146  146  1    18.86562268              23.11421835              0.0                     # Si
147  147  1    20.66240298              23.11421835              0.0                     # Si
148  148  1    22.45907956              23.11421835              0.0                     # Si
149  149  1    24.25585986              23.11421835              0.0                     # Si
150  150  1    26.05253643              23.11421835              0.0                     # Si
151  151  1    27.84931674              23.11421835              0.0                     # Si
152  152  1    0.89833829               23.11421835              0.0                     # Si
153  153  1    2.69511859               23.11421835              0.0                     # Si
154  154  1    4.49179516               23.11421835              0.0                     # Si
155  155  1    6.28857547               23.11421835              0.0                     # Si
156  156  1    8.08525204               23.11421835              0.0                     # Si
157  157  1    9.88203235               23.11421835              0.0                     # Si
158  158  1    11.67870892              23.11421835              0.0                     # Si
159  159  1    13.47548923              23.11421835              0.0                     # Si
160  160  1    14.37382751              23.63363899              0.0                     # Si
161  161  1    16.17060782              23.63363899              0.0                     # Si
162  162  1    17.96728439              23.63363899              0.0                     # Si
163  163  1    19.7640647               23.63363899              0.0                     # Si
164  164  1    21.56074127              23.63363899              0.0                     # Si
165  165  1    23.35752158              23.63363899              0.0                     # Si
166  166  1    25.15419815              23.63363899              0.0                     # Si
167  167  1    26.95097846              23.63363899              0.0                     # Si
168  168  1    28.74765503              23.63363899              0.0                     # Si
169  169  1    1.79678031               23.63363899              0.0                     # Si
170  170  1    3.59345688               23.63363899              0.0                     # Si
171  171  1    5.39023718               23.63363899              0.0                     # Si
172  172  1    7.18691376               23.63363899              0.0                     # Si
173  173  1    8.98369406               23.63363899              0.0                     # Si
174  174  1    10.78037064              23.63363899              0.0                     # Si
175  175  1    12.57715094              23.63363899              0.0                     # Si
176  176  1    16.17060782              24.67248026              0.0                     # Si
177  177  1    17.96728439              24.67248026              0.0                     # Si
178  178  1    19.7640647               24.67248026              0.0                     # Si
179  179  1    21.56074127              24.67248026              0.0                     # Si
180  180  1    23.35752158              24.67248026              0.0                     # Si
181  181  1    25.15419815              24.67248026              0.0                     # Si
182  182  1    26.95097846              24.67248026              0.0                     # Si
183  183  1    28.74765503              24.67248026              0.0                     # Si
184  184  1    1.79678031               24.67248026              0.0                     # Si
185  185  1    3.59345688               24.67248026              0.0                     # Si
186  186  1    5.39023718               24.67248026              0.0                     # Si
187  187  1    7.18691376               24.67248026              0.0                     # Si
188  188  1    8.98369406               24.67248026              0.0                     # Si
189  189  1    10.78037064              24.67248026              0.0                     # Si
190  190  1    12.57715094              24.67248026              0.0                     # Si
191  191  1    14.37382751              24.67248026              0.0                     # Si
192  192  1    15.2721658               0.25971032               0.0                     # Si
193  193  1    17.06894611              0.25971032               0.0                     # Si
194  194  1    18.86562268              0.25971032               0.0                     # Si
195  195  1    20.66240298              0.25971032               0.0                     # Si
196  196  1    22.45907956              0.25971032               0.0                     # Si
197  197  1    24.25585986              0.25971032               0.0                     # Si
198  198  1    26.05253643              0.25971032               0.0                     # Si
199  199  1    27.84931674              0.25971032               0.0                     # Si
200  200  1    0.89833829               0.25971032               0.0                     # Si
201  201  1    2.69511859               0.25971032               0.0                     # Si
202  202  1    4.49179516               0.25971032               0.0                     # Si
203  203  1    6.28857547               0.25971032               0.0                     # Si
204  204  1    8.08525204               0.25971032               0.0                     # Si
205  205  1    9.88203235               0.25971032               0.0                     # Si
206  206  1    11.67870892              0.25971032               0.0                     # Si
207  207  1    13.47548923              0.25971032               0.0                     # Si
208  208  1    15.2721658               1.29855159               0.0                     # Si
209  209  1    17.06894611              1.29855159               0.0                     # Si
210  210  1    18.86562268              1.29855159               0.0                     # Si
211  211  1    20.66240298              1.29855159               0.0                     # Si
212  212  1    22.45907956              1.29855159               0.0                     # Si
213  213  1    24.25585986              1.29855159               0.0                     # Si
214  214  1    26.05253643              1.29855159               0.0                     # Si
215  215  1    27.84931674              1.29855159               0.0                     # Si
216  216  1    0.89833829               1.29855159               0.0                     # Si
217  217  1    2.69511859               1.29855159               0.0                     # Si
218  218  1    4.49179516               1.29855159               0.0                     # Si
219  219  1    6.28857547               1.29855159               0.0                     # Si
220  220  1    8.08525204               1.29855159               0.0                     # Si
221  221  1    9.88203235               1.29855159               0.0                     # Si
222  222  1    11.67870892              1.29855159               0.0                     # Si
223  223  1    13.47548923              1.29855159               0.0                     # Si
224  224  1    14.37382751              1.81797223               0.0                     # Si
225  225  1    16.17060782              1.81797223               0.0                     # Si
226  226  1    17.96728439              1.81797223               0.0                     # Si
227  227  1    19.7640647               1.81797223               0.0                     # Si
228  228  1    21.56074127              1.81797223               0.0                     # Si
229  229  1    23.35752158              1.81797223               0.0                     # Si
230  230  1    25.15419815              1.81797223               0.0                     # Si
231  231  1    26.95097846              1.81797223               0.0                     # Si
232  232  1    28.74765503              1.81797223               0.0                     # Si
233  233  1    1.79678031               1.81797223               0.0                     # Si
234  234  1    3.59345688               1.81797223               0.0                     # Si
235  235  1    5.39023718               1.81797223               0.0                     # Si
236  236  1    7.18691376               1.81797223               0.0                     # Si
237  237  1    8.98369406               1.81797223               0.0                     # Si
238  238  1    10.78037064              1.81797223               0.0                     # Si
239  239  1    12.57715094              1.81797223               0.0                     # Si
240  240  1    16.17060782              2.8568135                0.0                     # Si
241  241  1    17.96728439              2.8568135                0.0                     # Si
242  242  1    19.7640647               2.8568135                0.0                     # Si
243  243  1    21.56074127              2.8568135                0.0                     # Si
244  244  1    23.35752158              2.8568135                0.0                     # Si
245  245  1    25.15419815              2.8568135                0.0                     # Si
246  246  1    26.95097846              2.8568135                0.0                     # Si
247  247  1    28.74765503              2.8568135                0.0                     # Si
248  248  1    1.79678031               2.8568135                0.0                     # Si
249  249  1    3.59345688               2.8568135                0.0                     # Si
250  250  1    5.39023718               2.8568135                0.0                     # Si
251  251  1    7.18691376               2.8568135                0.0                     # Si
252  252  1    8.98369406               2.8568135                0.0                     # Si
253  253  1    10.78037064              2.8568135                0.0                     # Si
254  254  1    12.57715094              2.8568135                0.0                     # Si
255  255  1    14.37382751              2.8568135                0.0                     # Si
256  256  1    15.2721658               3.37623414               0.0                     # Si
257  257  1    17.06894611              3.37623414               0.0                     # Si
258  258  1    18.86562268              3.37623414               0.0                     # Si
259  259  1    20.66240298              3.37623414               0.0                     # Si
260  260  1    22.45907956              3.37623414               0.0                     # Si
261  261  1    24.25585986              3.37623414               0.0                     # Si
262  262  1    26.05253643              3.37623414               0.0                     # Si
263  263  1    27.84931674              3.37623414               0.0                     # Si
264  264  1    0.89833829               3.37623414               0.0                     # Si
265  265  1    2.69511859               3.37623414               0.0                     # Si
266  266  1    4.49179516               3.37623414               0.0                     # Si
267  267  1    6.28857547               3.37623414               0.0                     # Si
268  268  1    8.08525204               3.37623414               0.0                     # Si
269  269  1    9.88203235               3.37623414               0.0                     # Si
270  270  1    11.67870892              3.37623414               0.0                     # Si
271  271  1    13.47548923              3.37623414               0.0                     # Si
272  272  1    15.2721658               4.41507542               0.0                     # Si
273  273  1    17.06894611              4.41507542               0.0                     # Si
274  274  1    18.86562268              4.41507542               0.0                     # Si
275  275  1    20.66240298              4.41507542               0.0                     # Si
276  276  1    22.45907956              4.41507542               0.0                     # Si
277  277  1    24.25585986              4.41507542               0.0                     # Si
278  278  1    26.05253643              4.41507542               0.0                     # Si
279  279  1    27.84931674              4.41507542               0.0                     # Si
280  280  1    0.89833829               4.41507542               0.0                     # Si
281  281  1    2.69511859               4.41507542               0.0                     # Si
282  282  1    4.49179516               4.41507542               0.0                     # Si
283  283  1    6.28857547               4.41507542               0.0                     # Si
284  284  1    8.08525204               4.41507542               0.0                     # Si
285  285  1    9.88203235               4.41507542               0.0                     # Si
286  286  1    11.67870892              4.41507542               0.0                     # Si
287  287  1    13.47548923              4.41507542               0.0                     # Si
288  288  1    14.37382751              4.93449605               0.0                     # Si
289  289  1    16.17060782              4.93449605               0.0                     # Si
290  290  1    17.96728439              4.93449605               0.0                     # Si
291  291  1    19.7640647               4.93449605               0.0                     # Si
292  292  1    21.56074127              4.93449605               0.0                     # Si
293  293  1    23.35752158              4.93449605               0.0                     # Si
294  294  1    25.15419815              4.93449605               0.0                     # Si
295  295  1    26.95097846              4.93449605               0.0                     # Si
296  296  1    28.74765503              4.93449605               0.0                     # Si
297  297  1    1.79678031               4.93449605               0.0                     # Si
298  298  1    3.59345688               4.93449605               0.0                     # Si
299  299  1    5.39023718               4.93449605               0.0                     # Si
300  300  1    7.18691376               4.93449605               0.0                     # Si
301  301  1    8.98369406               4.93449605               0.0                     # Si
302  302  1    10.78037064              4.93449605               0.0                     # Si
303  303  1    12.57715094              4.93449605               0.0                     # Si
304  304  1    16.17060782              5.97333733               0.0                     # Si
305  305  1    17.96728439              5.97333733               0.0                     # Si
306  306  1    19.7640647               5.97333733               0.0                     # Si
307  307  1    21.56074127              5.97333733               0.0                     # Si
308  308  1    23.35752158              5.97333733               0.0                     # Si
309  309  1    25.15419815              5.97333733               0.0                     # Si
310  310  1    26.95097846              5.97333733               0.0                     # Si
311  311  1    28.74765503              5.97333733               0.0                     # Si
312  312  1    1.79678031               5.97333733               0.0                     # Si
313  313  1    3.59345688               5.97333733               0.0                     # Si
314  314  1    5.39023718               5.97333733               0.0                     # Si
315  315  1    7.18691376               5.97333733               0.0                     # Si