DATA FILE Produced from netmc results (cf David Morley)
1100 atoms
2640 bonds
0 angles
0 dihedrals
0 impropers
2 atom types
2 bond types
0 angle types
0 dihedral types
0 improper types
0.00000 164.82051770403882 xlo xhi
0.00000 142.94503769799314 ylo yhi

# Pair Coeffs
#
# 1  O
# 2  Si

# Bond Coeffs
# 
# 1  O-O
# 2  Si-O
# 3  O-O rep
# 4  Si-Si rep

 Masses

1 28.10000 # O 
2 32.01000 # Si

 Atoms # molecular

1    1    2    128.76582039853903       78.91757288023922        5.0                      # Si
2    2    2    139.06739525993703       78.91757288023922        5.0                      # Si
3    3    2    149.36837540067808       78.91757288023922        5.0                      # Si
4    4    2    159.66995031940957       78.91757288023922        5.0                      # Si
5    5    2    5.1504900990372855       78.91757288023922        5.0                      # Si
6    6    2    15.45206496043526        78.91757288023922        5.0                      # Si
7    7    2    25.75304510117631        78.91757288023922        5.0                      # Si
8    8    2    36.05462001990781        78.91757288023922        5.0                      # Si
9    9    2    46.355600160648855       78.91757288023922        5.0                      # Si
10   10   2    123.61533029950176       81.89559451566969        5.0                      # Si
11   11   2    133.91690521823327       81.89559451566969        5.0                      # Si
12   12   2    144.2178853589743        81.89559451566969        5.0                      # Si
13   13   2    154.51946027770583       81.89559451566969        5.0                      # Si
14   14   2    164.82044041844685       81.89559451566969        5.0                      # Si
15   15   2    10.3015749187315         81.89559451566969        5.0                      # Si
16   16   2    20.60255505947255        81.89559451566969        5.0                      # Si
17   17   2    30.90412992087052        81.89559451566969        5.0                      # Si
18   18   2    41.2051101189451         81.89559451566969        5.0                      # Si
19   19   2    51.50668498034307        81.89559451566969        5.0                      # Si
20   20   2    123.61533029950176       87.8516377291971         5.0                      # Si
21   21   2    133.91690521823327       87.8516377291971         5.0                      # Si
22   22   2    144.2178853589743        87.8516377291971         5.0                      # Si
23   23   2    154.51946027770583       87.8516377291971         5.0                      # Si
24   24   2    164.82044041844685       87.8516377291971         5.0                      # Si
25   25   2    10.3015749187315         87.8516377291971         5.0                      # Si
26   26   2    20.60255505947255        87.8516377291971         5.0                      # Si
27   27   2    30.90412992087052        87.8516377291971         5.0                      # Si
28   28   2    41.2051101189451         87.8516377291971         5.0                      # Si
29   29   2    51.50668498034307        87.8516377291971         5.0                      # Si
30   30   2    128.76582039853903       90.82965936462756        5.0                      # Si
31   31   2    139.06739525993703       90.82965936462756        5.0                      # Si
32   32   2    149.36837540067808       90.82965936462756        5.0                      # Si
33   33   2    159.66995031940957       90.82965936462756        5.0                      # Si
34   34   2    5.1504900990372855       90.82965936462756        5.0                      # Si
35   35   2    15.45206496043526        90.82965936462756        5.0                      # Si
36   36   2    25.75304510117631        90.82965936462756        5.0                      # Si
37   37   2    36.05462001990781        90.82965936462756        5.0                      # Si
38   38   2    46.355600160648855       90.82965936462756        5.0                      # Si
39   39   2    118.46484020046448       96.78570263548849        5.0                      # Si
40   40   2    128.76582039853903       96.78570263548849        5.0                      # Si
41   41   2    139.06739525993703       96.78570263548849        5.0                      # Si
42   42   2    149.36837540067808       96.78570263548849        5.0                      # Si
43   43   2    159.66995031940957       96.78570263548849        5.0                      # Si
44   44   2    5.1504900990372855       96.78570263548849        5.0                      # Si
45   45   2    15.45206496043526        96.78570263548849        5.0                      # Si
46   46   2    25.75304510117631        96.78570263548849        5.0                      # Si
47   47   2    36.05462001990781        96.78570263548849        5.0                      # Si
48   48   2    46.355600160648855       96.78570263548849        5.0                      # Si
49   49   2    56.65717507938035        96.78570263548849        5.0                      # Si
50   50   2    123.61533029950176       99.76372421358543        5.0                      # Si
51   51   2    133.91690521823327       99.76372421358543        5.0                      # Si
52   52   2    144.2178853589743        99.76372421358543        5.0                      # Si
53   53   2    154.51946027770583       99.76372421358543        5.0                      # Si
54   54   2    164.82044041844685       99.76372421358543        5.0                      # Si
55   55   2    10.3015749187315         99.76372421358543        5.0                      # Si
56   56   2    20.60255505947255        99.76372421358543        5.0                      # Si
57   57   2    30.90412992087052        99.76372421358543        5.0                      # Si
58   58   2    41.2051101189451         99.76372421358543        5.0                      # Si
59   59   2    51.50668498034307        99.76372421358543        5.0                      # Si
60   60   2    113.3143501587607        105.7197674844464        5.0                      # Si
61   61   2    123.61533029950176       105.7197674844464        5.0                      # Si
62   62   2    133.91690521823327       105.7197674844464        5.0                      # Si
63   63   2    144.2178853589743        105.7197674844464        5.0                      # Si
64   64   2    154.51946027770583       105.7197674844464        5.0                      # Si
65   65   2    164.82044041844685       105.7197674844464        5.0                      # Si
66   66   2    10.3015749187315         105.7197674844464        5.0                      # Si
67   67   2    20.60255505947255        105.7197674844464        5.0                      # Si
68   68   2    30.90412992087052        105.7197674844464        5.0                      # Si
69   69   2    41.2051101189451         105.7197674844464        5.0                      # Si
70   70   2    51.50668498034307        105.7197674844464        5.0                      # Si
71   71   2    61.807665178417636       105.7197674844464        5.0                      # Si
72   72   2    118.46484020046448       108.69778906254332       5.0                      # Si
73   73   2    128.76582039853903       108.69778906254332       5.0                      # Si
74   74   2    139.06739525993703       108.69778906254332       5.0                      # Si
75   75   2    149.36837540067808       108.69778906254332       5.0                      # Si
76   76   2    159.66995031940957       108.69778906254332       5.0                      # Si
77   77   2    5.1504900990372855       108.69778906254332       5.0                      # Si
78   78   2    15.45206496043526        108.69778906254332       5.0                      # Si
79   79   2    25.75304510117631        108.69778906254332       5.0                      # Si
80   80   2    36.05462001990781        108.69778906254332       5.0                      # Si
81   81   2    46.355600160648855       108.69778906254332       5.0                      # Si
82   82   2    56.65717507938035        108.69778906254332       5.0                      # Si
83   83   2    108.16326533906651       114.65383233340427       5.0                      # Si
84   84   2    118.46484020046448       114.65383233340427       5.0                      # Si
85   85   2    128.76582039853903       114.65383233340427       5.0                      # Si
86   86   2    139.06739525993703       114.65383233340427       5.0                      # Si
87   87   2    149.36837540067808       114.65383233340427       5.0                      # Si
88   88   2    159.66995031940957       114.65383233340427       5.0                      # Si
89   89   2    5.1504900990372855       114.65383233340427       5.0                      # Si
90   90   2    15.45206496043526        114.65383233340427       5.0                      # Si
91   91   2    25.75304510117631        114.65383233340427       5.0                      # Si
92   92   2    36.05462001990781        114.65383233340427       5.0                      # Si
93   93   2    46.355600160648855       114.65383233340427       5.0                      # Si
94   94   2    56.65717507938035        114.65383233340427       5.0                      # Si
95   95   2    66.9581552201214         114.65383233340427       5.0                      # Si
96   96   2    82.41022018055666        117.63185396883473       5.0                      # Si
97   97   2    92.71179509928817        117.63185396883473       5.0                      # Si
98   98   2    103.01277524002921       117.63185396883473       5.0                      # Si
99   99   2    113.3143501587607        117.63185396883473       5.0                      # Si
100  100  2    123.61533029950176       117.63185396883473       5.0                      # Si
101  101  2    133.91690521823327       117.63185396883473       5.0                      # Si
102  102  2    144.2178853589743        117.63185396883473       5.0                      # Si
103  103  2    154.51946027770583       117.63185396883473       5.0                      # Si
104  104  2    164.82044041844685       117.63185396883473       5.0                      # Si
105  105  2    10.3015749187315         117.63185396883473       5.0                      # Si
106  106  2    20.60255505947255        117.63185396883473       5.0                      # Si
107  107  2    30.90412992087052        117.63185396883473       5.0                      # Si
108  108  2    41.2051101189451         117.63185396883473       5.0                      # Si
109  109  2    51.50668498034307        117.63185396883473       5.0                      # Si
110  110  2    61.807665178417636       117.63185396883473       5.0                      # Si
111  111  2    72.10924003981562        117.63185396883473       5.0                      # Si
112  112  2    92.71179509928817        123.58789718236214       5.0                      # Si
113  113  2    103.01277524002921       123.58789718236214       5.0                      # Si
114  114  2    113.3143501587607        123.58789718236214       5.0                      # Si
115  115  2    123.61533029950176       123.58789718236214       5.0                      # Si
116  116  2    133.91690521823327       123.58789718236214       5.0                      # Si
117  117  2    144.2178853589743        123.58789718236214       5.0                      # Si
118  118  2    154.51946027770583       123.58789718236214       5.0                      # Si
119  119  2    164.82044041844685       123.58789718236214       5.0                      # Si
120  120  2    10.3015749187315         123.58789718236214       5.0                      # Si
121  121  2    20.60255505947255        123.58789718236214       5.0                      # Si
122  122  2    30.90412992087052        123.58789718236214       5.0                      # Si
123  123  2    41.2051101189451         123.58789718236214       5.0                      # Si
124  124  2    51.50668498034307        123.58789718236214       5.0                      # Si
125  125  2    61.807665178417636       123.58789718236214       5.0                      # Si
126  126  2    72.10924003981562        123.58789718236214       5.0                      # Si
127  127  2    82.41022018055666        123.58789718236214       5.0                      # Si
128  128  2    87.56071027959395        126.5659188177926        5.0                      # Si
129  129  2    97.86228519832545        126.5659188177926        5.0                      # Si
130  130  2    108.16326533906651       126.5659188177926        5.0                      # Si
131  131  2    118.46484020046448       126.5659188177926        5.0                      # Si
132  132  2    128.76582039853903       126.5659188177926        5.0                      # Si
133  133  2    139.06739525993703       126.5659188177926        5.0                      # Si
134  134  2    149.36837540067808       126.5659188177926        5.0                      # Si
135  135  2    159.66995031940957       126.5659188177926        5.0                      # Si
136  136  2    5.1504900990372855       126.5659188177926        5.0                      # Si
137  137  2    15.45206496043526        126.5659188177926        5.0                      # Si
138  138  2    25.75304510117631        126.5659188177926        5.0                      # Si
139  139  2    36.05462001990781        126.5659188177926        5.0                      # Si
140  140  2    46.355600160648855       126.5659188177926        5.0                      # Si
141  141  2    56.65717507938035        126.5659188177926        5.0                      # Si
142  142  2    66.9581552201214         126.5659188177926        5.0                      # Si
143  143  2    77.25973013885292        126.5659188177926        5.0                      # Si
144  144  2    87.56071027959395        132.52196203132004       5.0                      # Si
145  145  2    97.86228519832545        132.52196203132004       5.0                      # Si
146  146  2    108.16326533906651       132.52196203132004       5.0                      # Si
147  147  2    118.46484020046448       132.52196203132004       5.0                      # Si
148  148  2    128.76582039853903       132.52196203132004       5.0                      # Si
149  149  2    139.06739525993703       132.52196203132004       5.0                      # Si
150  150  2    149.36837540067808       132.52196203132004       5.0                      # Si
151  151  2    159.66995031940957       132.52196203132004       5.0                      # Si
152  152  2    5.1504900990372855       132.52196203132004       5.0                      # Si
153  153  2    15.45206496043526        132.52196203132004       5.0                      # Si
154  154  2    25.75304510117631        132.52196203132004       5.0                      # Si
155  155  2    36.05462001990781        132.52196203132004       5.0                      # Si
156  156  2    46.355600160648855       132.52196203132004       5.0                      # Si
157  157  2    56.65717507938035        132.52196203132004       5.0                      # Si
158  158  2    66.9581552201214         132.52196203132004       5.0                      # Si
159  159  2    77.25973013885292        132.52196203132004       5.0                      # Si
160  160  2    82.41022018055666        135.4999836667505        5.0                      # Si
161  161  2    92.71179509928817        135.4999836667505        5.0                      # Si
162  162  2    103.01277524002921       135.4999836667505        5.0                      # Si
163  163  2    113.3143501587607        135.4999836667505        5.0                      # Si
164  164  2    123.61533029950176       135.4999836667505        5.0                      # Si
165  165  2    133.91690521823327       135.4999836667505        5.0                      # Si
166  166  2    144.2178853589743        135.4999836667505        5.0                      # Si
167  167  2    154.51946027770583       135.4999836667505        5.0                      # Si
168  168  2    164.82044041844685       135.4999836667505        5.0                      # Si
169  169  2    10.3015749187315         135.4999836667505        5.0                      # Si
170  170  2    20.60255505947255        135.4999836667505        5.0                      # Si
171  171  2    30.90412992087052        135.4999836667505        5.0                      # Si
172  172  2    41.2051101189451         135.4999836667505        5.0                      # Si
173  173  2    51.50668498034307        135.4999836667505        5.0                      # Si
174  174  2    61.807665178417636       135.4999836667505        5.0                      # Si
175  175  2    72.10924003981562        135.4999836667505        5.0                      # Si
176  176  2    92.71179509928817        141.4560268802779        5.0                      # Si
177  177  2    103.01277524002921       141.4560268802779        5.0                      # Si
178  178  2    113.3143501587607        141.4560268802779        5.0                      # Si
179  179  2    123.61533029950176       141.4560268802779        5.0                      # Si
180  180  2    133.91690521823327       141.4560268802779        5.0                      # Si
181  181  2    144.2178853589743        141.4560268802779        5.0                      # Si
182  182  2    154.51946027770583       141.4560268802779        5.0                      # Si
183  183  2    164.82044041844685       141.4560268802779        5.0                      # Si
184  184  2    10.3015749187315         141.4560268802779        5.0                      # Si
185  185  2    20.60255505947255        141.4560268802779        5.0                      # Si
186  186  2    30.90412992087052        141.4560268802779        5.0                      # Si
187  187  2    41.2051101189451         141.4560268802779        5.0                      # Si
188  188  2    51.50668498034307        141.4560268802779        5.0                      # Si
189  189  2    61.807665178417636       141.4560268802779        5.0                      # Si
190  190  2    72.10924003981562        141.4560268802779        5.0                      # Si
191  191  2    82.41022018055666        141.4560268802779        5.0                      # Si
192  192  2    87.56071027959395        1.4890108177152341       5.0                      # Si
193  193  2    97.86228519832545        1.4890108177152341       5.0                      # Si
194  194  2    108.16326533906651       1.4890108177152341       5.0                      # Si
195  195  2    118.46484020046448       1.4890108177152341       5.0                      # Si
196  196  2    128.76582039853903       1.4890108177152341       5.0                      # Si
197  197  2    139.06739525993703       1.4890108177152341       5.0                      # Si
198  198  2    149.36837540067808       1.4890108177152341       5.0                      # Si
199  199  2    159.66995031940957       1.4890108177152341       5.0                      # Si
200  200  2    5.1504900990372855       1.4890108177152341       5.0                      # Si
201  201  2    15.45206496043526        1.4890108177152341       5.0                      # Si
202  202  2    25.75304510117631        1.4890108177152341       5.0                      # Si
203  203  2    36.05462001990781        1.4890108177152341       5.0                      # Si
204  204  2    46.355600160648855       1.4890108177152341       5.0                      # Si
205  205  2    56.65717507938035        1.4890108177152341       5.0                      # Si
206  206  2    66.9581552201214         1.4890108177152341       5.0                      # Si
207  207  2    77.25973013885292        1.4890108177152341       5.0                      # Si
208  208  2    87.56071027959395        7.445054031242646        5.0                      # Si
209  209  2    97.86228519832545        7.445054031242646        5.0                      # Si
210  210  2    108.16326533906651       7.445054031242646        5.0                      # Si
211  211  2    118.46484020046448       7.445054031242646        5.0                      # Si
212  212  2    128.76582039853903       7.445054031242646        5.0                      # Si
213  213  2    139.06739525993703       7.445054031242646        5.0                      # Si
214  214  2    149.36837540067808       7.445054031242646        5.0                      # Si
215  215  2    159.66995031940957       7.445054031242646        5.0                      # Si
216  216  2    5.1504900990372855       7.445054031242646        5.0                      # Si
217  217  2    15.45206496043526        7.445054031242646        5.0                      # Si
218  218  2    25.75304510117631        7.445054031242646        5.0                      # Si
219  219  2    36.05462001990781        7.445054031242646        5.0                      # Si
220  220  2    46.355600160648855       7.445054031242646        5.0                      # Si
221  221  2    56.65717507938035        7.445054031242646        5.0                      # Si
222  222  2    66.9581552201214         7.445054031242646        5.0                      # Si
223  223  2    77.25973013885292        7.445054031242646        5.0                      # Si
224  224  2    82.41022018055666        10.423075666673116       5.0                      # Si
225  225  2    92.71179509928817        10.423075666673116       5.0                      # Si
226  226  2    103.01277524002921       10.423075666673116       5.0                      # Si
227  227  2    113.3143501587607        10.423075666673116       5.0                      # Si
228  228  2    123.61533029950176       10.423075666673116       5.0                      # Si
229  229  2    133.91690521823327       10.423075666673116       5.0                      # Si
230  230  2    144.2178853589743        10.423075666673116       5.0                      # Si
231  231  2    154.51946027770583       10.423075666673116       5.0                      # Si
232  232  2    164.82044041844685       10.423075666673116       5.0                      # Si
233  233  2    10.3015749187315         10.423075666673116       5.0                      # Si
234  234  2    20.60255505947255        10.423075666673116       5.0                      # Si
235  235  2    30.90412992087052        10.423075666673116       5.0                      # Si
236  236  2    41.2051101189451         10.423075666673116       5.0                      # Si
237  237  2    51.50668498034307        10.423075666673116       5.0                      # Si
238  238  2    61.807665178417636       10.423075666673116       5.0                      # Si
239  239  2    72.10924003981562        10.423075666673116       5.0                      # Si
240  240  2    92.71179509928817        16.379118880200526       5.0                      # Si
241  241  2    103.01277524002921       16.379118880200526       5.0                      # Si
242  242  2    113.3143501587607        16.379118880200526       5.0                      # Si
243  243  2    123.61533029950176       16.379118880200526       5.0                      # Si
244  244  2    133.91690521823327       16.379118880200526       5.0                      # Si
245  245  2    144.2178853589743        16.379118880200526       5.0                      # Si
246  246  2    154.51946027770583       16.379118880200526       5.0                      # Si
247  247  2    164.82044041844685       16.379118880200526       5.0                      # Si
248  248  2    10.3015749187315         16.379118880200526       5.0                      # Si
249  249  2    20.60255505947255        16.379118880200526       5.0                      # Si
250  250  2    30.90412992087052        16.379118880200526       5.0                      # Si
251  251  2    41.2051101189451         16.379118880200526       5.0                      # Si
252  252  2    51.50668498034307        16.379118880200526       5.0                      # Si
253  253  2    61.807665178417636       16.379118880200526       5.0                      # Si
254  254  2    72.10924003981562        16.379118880200526       5.0                      # Si
255  255  2    82.41022018055666        16.379118880200526       5.0                      # Si
256  256  2    87.56071027959395        19.357140515630995       5.0                      # Si
257  257  2    97.86228519832545        19.357140515630995       5.0                      # Si
258  258  2    108.16326533906651       19.357140515630995       5.0                      # Si
259  259  2    118.46484020046448       19.357140515630995       5.0                      # Si
260  260  2    128.76582039853903       19.357140515630995       5.0                      # Si
261  261  2    139.06739525993703       19.357140515630995       5.0                      # Si
262  262  2    149.36837540067808       19.357140515630995       5.0                      # Si
263  263  2    159.66995031940957       19.357140515630995       5.0                      # Si
264  264  2    5.1504900990372855       19.357140515630995       5.0                      # Si
265  265  2    15.45206496043526        19.357140515630995       5.0                      # Si
266  266  2    25.75304510117631        19.357140515630995       5.0                      # Si
267  267  2    36.05462001990781        19.357140515630995       5.0                      # Si
268  268  2    46.355600160648855       19.357140515630995       5.0                      # Si
269  269  2    56.65717507938035        19.357140515630995       5.0                      # Si
270  270  2    66.9581552201214         19.357140515630995       5.0                      # Si
271  271  2    77.25973013885292        19.357140515630995       5.0                      # Si
272  272  2    87.56071027959395        25.313183786491933       5.0                      # Si
273  273  2    97.86228519832545        25.313183786491933       5.0                      # Si
274  274  2    108.16326533906651       25.313183786491933       5.0                      # Si
275  275  2    118.46484020046448       25.313183786491933       5.0                      # Si
276  276  2    128.76582039853903       25.313183786491933       5.0                      # Si
277  277  2    139.06739525993703       25.313183786491933       5.0                      # Si
278  278  2    149.36837540067808       25.313183786491933       5.0                      # Si
279  279  2    159.66995031940957       25.313183786491933       5.0                      # Si
280  280  2    5.1504900990372855       25.313183786491933       5.0                      # Si
281  281  2    15.45206496043526        25.313183786491933       5.0                      # Si
282  282  2    25.75304510117631        25.313183786491933       5.0                      # Si
283  283  2    36.05462001990781        25.313183786491933       5.0                      # Si
284  284  2    46.355600160648855       25.313183786491933       5.0                      # Si
285  285  2    56.65717507938035        25.313183786491933       5.0                      # Si
286  286  2    66.9581552201214         25.313183786491933       5.0                      # Si
287  287  2    77.25973013885292        25.313183786491933       5.0                      # Si
288  288  2    82.41022018055666        28.291205364588876       5.0                      # Si
289  289  2    92.71179509928817        28.291205364588876       5.0                      # Si
290  290  2    103.01277524002921       28.291205364588876       5.0                      # Si
291  291  2    113.3143501587607        28.291205364588876       5.0                      # Si
292  292  2    123.61533029950176       28.291205364588876       5.0                      # Si
293  293  2    133.91690521823327       28.291205364588876       5.0                      # Si
294  294  2    144.2178853589743        28.291205364588876       5.0                      # Si
295  295  2    154.51946027770583       28.291205364588876       5.0                      # Si
296  296  2    164.82044041844685       28.291205364588876       5.0                      # Si
297  297  2    10.3015749187315         28.291205364588876       5.0                      # Si
298  298  2    20.60255505947255        28.291205364588876       5.0                      # Si
299  299  2    30.90412992087052        28.291205364588876       5.0                      # Si
300  300  2    41.2051101189451         28.291205364588876       5.0                      # Si
301  301  2    51.50668498034307        28.291205364588876       5.0                      # Si
302  302  2    61.807665178417636       28.291205364588876       5.0                      # Si
303  303  2    72.10924003981562        28.291205364588876       5.0                      # Si
304  304  2    92.71179509928817        34.24724863544981        5.0                      # Si
305  305  2    103.01277524002921       34.24724863544981        5.0                      # Si
306  306  2    113.3143501587607        34.24724863544981        5.0                      # Si
307  307  2    123.61533029950176       34.24724863544981        5.0                      # Si
308  308  2    133.91690521823327       34.24724863544981        5.0                      # Si
309  309  2    144.2178853589743        34.24724863544981        5.0                      # Si
310  310  2    154.51946027770583       34.24724863544981        5.0                      # Si
311  311  2    164.82044041844685       34.24724863544981        5.0                      # Si