DATA FILE Produced from netmc results (cf David Morley)
2640 atoms
8800 bonds
0 angles
0 dihedrals
0 impropers
2 atom types
0 bond types
2 bond types
0 angle types
0 dihedral types
0 improper types
0.00000 164.82051770403882 xlo xhi
0.00000 142.94503769799314 ylo yhi
0.0000 200.0000 zlo zhi

# Pair Coeffs
#
# 1  O
# 2  Si

# Bond Coeffs
# 
# 1  O-O
# 2  Si-O
# 3  O-O rep
# 4  Si-Si rep

 Masses

1 28.10000 # O 
2 32.01000 # Si

 Atoms # molecular

1    1    1    128.76582039853903       78.91757288023922        8.040569334518267        # O
2    2    1    139.06739525993703       78.91757288023922        8.040569334518267        # O
3    3    1    149.36837540067808       78.91757288023922        8.040569334518267        # O
4    4    1    159.66995031940957       78.91757288023922        8.040569334518267        # O
5    5    1    5.1504900990372855       78.91757288023922        8.040569334518267        # O
6    6    1    15.45206496043526        78.91757288023922        8.040569334518267        # O
7    7    1    25.75304510117631        78.91757288023922        8.040569334518267        # O
8    8    1    36.05462001990781        78.91757288023922        8.040569334518267        # O
9    9    1    46.355600160648855       78.91757288023922        8.040569334518267        # O
10   10   1    123.61533029950176       81.89559451566969        8.040569334518267        # O
11   11   1    133.91690521823327       81.89559451566969        8.040569334518267        # O
12   12   1    144.2178853589743        81.89559451566969        8.040569334518267        # O
13   13   1    154.51946027770583       81.89559451566969        8.040569334518267        # O
14   14   1    164.82044041844685       81.89559451566969        8.040569334518267        # O
15   15   1    10.3015749187315         81.89559451566969        8.040569334518267        # O
16   16   1    20.60255505947255        81.89559451566969        8.040569334518267        # O
17   17   1    30.90412992087052        81.89559451566969        8.040569334518267        # O
18   18   1    41.2051101189451         81.89559451566969        8.040569334518267        # O
19   19   1    51.50668498034307        81.89559451566969        8.040569334518267        # O
20   20   1    123.61533029950176       87.8516377291971         8.040569334518267        # O
21   21   1    133.91690521823327       87.8516377291971         8.040569334518267        # O
22   22   1    144.2178853589743        87.8516377291971         8.040569334518267        # O
23   23   1    154.51946027770583       87.8516377291971         8.040569334518267        # O
24   24   1    164.82044041844685       87.8516377291971         8.040569334518267        # O
25   25   1    10.3015749187315         87.8516377291971         8.040569334518267        # O
26   26   1    20.60255505947255        87.8516377291971         8.040569334518267        # O
27   27   1    30.90412992087052        87.8516377291971         8.040569334518267        # O
28   28   1    41.2051101189451         87.8516377291971         8.040569334518267        # O
29   29   1    51.50668498034307        87.8516377291971         8.040569334518267        # O
30   30   1    128.76582039853903       90.82965936462756        8.040569334518267        # O
31   31   1    139.06739525993703       90.82965936462756        8.040569334518267        # O
32   32   1    149.36837540067808       90.82965936462756        8.040569334518267        # O
33   33   1    159.66995031940957       90.82965936462756        8.040569334518267        # O
34   34   1    5.1504900990372855       90.82965936462756        8.040569334518267        # O
35   35   1    15.45206496043526        90.82965936462756        8.040569334518267        # O
36   36   1    25.75304510117631        90.82965936462756        8.040569334518267        # O
37   37   1    36.05462001990781        90.82965936462756        8.040569334518267        # O
38   38   1    46.355600160648855       90.82965936462756        8.040569334518267        # O
39   39   1    118.46484020046448       96.78570263548849        8.040569334518267        # O
40   40   1    128.76582039853903       96.78570263548849        8.040569334518267        # O
41   41   1    139.06739525993703       96.78570263548849        8.040569334518267        # O
42   42   1    149.36837540067808       96.78570263548849        8.040569334518267        # O
43   43   1    159.66995031940957       96.78570263548849        8.040569334518267        # O
44   44   1    5.1504900990372855       96.78570263548849        8.040569334518267        # O
45   45   1    15.45206496043526        96.78570263548849        8.040569334518267        # O
46   46   1    25.75304510117631        96.78570263548849        8.040569334518267        # O
47   47   1    36.05462001990781        96.78570263548849        8.040569334518267        # O
48   48   1    46.355600160648855       96.78570263548849        8.040569334518267        # O
49   49   1    56.65717507938035        96.78570263548849        8.040569334518267        # O
50   50   1    123.61533029950176       99.76372421358543        8.040569334518267        # O
51   51   1    133.91690521823327       99.76372421358543        8.040569334518267        # O
52   52   1    144.2178853589743        99.76372421358543        8.040569334518267        # O
53   53   1    154.51946027770583       99.76372421358543        8.040569334518267        # O
54   54   1    164.82044041844685       99.76372421358543        8.040569334518267        # O
55   55   1    10.3015749187315         99.76372421358543        8.040569334518267        # O
56   56   1    20.60255505947255        99.76372421358543        8.040569334518267        # O
57   57   1    30.90412992087052        99.76372421358543        8.040569334518267        # O
58   58   1    41.2051101189451         99.76372421358543        8.040569334518267        # O
59   59   1    51.50668498034307        99.76372421358543        8.040569334518267        # O
60   60   1    113.3143501587607        105.7197674844464        8.040569334518267        # O
61   61   1    123.61533029950176       105.7197674844464        8.040569334518267        # O
62   62   1    133.91690521823327       105.7197674844464        8.040569334518267        # O
63   63   1    144.2178853589743        105.7197674844464        8.040569334518267        # O
64   64   1    154.51946027770583       105.7197674844464        8.040569334518267        # O
65   65   1    164.82044041844685       105.7197674844464        8.040569334518267        # O
66   66   1    10.3015749187315         105.7197674844464        8.040569334518267        # O
67   67   1    20.60255505947255        105.7197674844464        8.040569334518267        # O
68   68   1    30.90412992087052        105.7197674844464        8.040569334518267        # O
69   69   1    41.2051101189451         105.7197674844464        8.040569334518267        # O
70   70   1    51.50668498034307        105.7197674844464        8.040569334518267        # O
71   71   1    61.807665178417636       105.7197674844464        8.040569334518267        # O
72   72   1    118.46484020046448       108.69778906254332       8.040569334518267        # O
73   73   1    128.76582039853903       108.69778906254332       8.040569334518267        # O
74   74   1    139.06739525993703       108.69778906254332       8.040569334518267        # O
75   75   1    149.36837540067808       108.69778906254332       8.040569334518267        # O
76   76   1    159.66995031940957       108.69778906254332       8.040569334518267        # O
77   77   1    5.1504900990372855       108.69778906254332       8.040569334518267        # O
78   78   1    15.45206496043526        108.69778906254332       8.040569334518267        # O
79   79   1    25.75304510117631        108.69778906254332       8.040569334518267        # O
80   80   1    36.05462001990781        108.69778906254332       8.040569334518267        # O
81   81   1    46.355600160648855       108.69778906254332       8.040569334518267        # O
82   82   1    56.65717507938035        108.69778906254332       8.040569334518267        # O
83   83   1    108.16326533906651       114.65383233340427       8.040569334518267        # O
84   84   1    118.46484020046448       114.65383233340427       8.040569334518267        # O
85   85   1    128.76582039853903       114.65383233340427       8.040569334518267        # O
86   86   1    139.06739525993703       114.65383233340427       8.040569334518267        # O
87   87   1    149.36837540067808       114.65383233340427       8.040569334518267        # O
88   88   1    159.66995031940957       114.65383233340427       8.040569334518267        # O
89   89   1    5.1504900990372855       114.65383233340427       8.040569334518267        # O
90   90   1    15.45206496043526        114.65383233340427       8.040569334518267        # O
91   91   1    25.75304510117631        114.65383233340427       8.040569334518267        # O
92   92   1    36.05462001990781        114.65383233340427       8.040569334518267        # O
93   93   1    46.355600160648855       114.65383233340427       8.040569334518267        # O
94   94   1    56.65717507938035        114.65383233340427       8.040569334518267        # O
95   95   1    66.9581552201214         114.65383233340427       8.040569334518267        # O
96   96   1    82.41022018055666        117.63185396883473       8.040569334518267        # O
97   97   1    92.71179509928817        117.63185396883473       8.040569334518267        # O
98   98   1    103.01277524002921       117.63185396883473       8.040569334518267        # O
99   99   1    113.3143501587607        117.63185396883473       8.040569334518267        # O
100  100  1    123.61533029950176       117.63185396883473       8.040569334518267        # O
101  101  1    133.91690521823327       117.63185396883473       8.040569334518267        # O
102  102  1    144.2178853589743        117.63185396883473       8.040569334518267        # O
103  103  1    154.51946027770583       117.63185396883473       8.040569334518267        # O
104  104  1    164.82044041844685       117.63185396883473       8.040569334518267        # O
105  105  1    10.3015749187315         117.63185396883473       8.040569334518267        # O
106  106  1    20.60255505947255        117.63185396883473       8.040569334518267        # O
107  107  1    30.90412992087052        117.63185396883473       8.040569334518267        # O
108  108  1    41.2051101189451         117.63185396883473       8.040569334518267        # O
109  109  1    51.50668498034307        117.63185396883473       8.040569334518267        # O
110  110  1    61.807665178417636       117.63185396883473       8.040569334518267        # O
111  111  1    72.10924003981562        117.63185396883473       8.040569334518267        # O
112  112  1    92.71179509928817        123.58789718236214       8.040569334518267        # O
113  113  1    103.01277524002921       123.58789718236214       8.040569334518267        # O
114  114  1    113.3143501587607        123.58789718236214       8.040569334518267        # O
115  115  1    123.61533029950176       123.58789718236214       8.040569334518267        # O
116  116  1    133.91690521823327       123.58789718236214       8.040569334518267        # O
117  117  1    144.2178853589743        123.58789718236214       8.040569334518267        # O
118  118  1    154.51946027770583       123.58789718236214       8.040569334518267        # O
119  119  1    164.82044041844685       123.58789718236214       8.040569334518267        # O
120  120  1    10.3015749187315         123.58789718236214       8.040569334518267        # O
121  121  1    20.60255505947255        123.58789718236214       8.040569334518267        # O
122  122  1    30.90412992087052        123.58789718236214       8.040569334518267        # O
123  123  1    41.2051101189451         123.58789718236214       8.040569334518267        # O
124  124  1    51.50668498034307        123.58789718236214       8.040569334518267        # O
125  125  1    61.807665178417636       123.58789718236214       8.040569334518267        # O
126  126  1    72.10924003981562        123.58789718236214       8.040569334518267        # O
127  127  1    82.41022018055666        123.58789718236214       8.040569334518267        # O
128  128  1    87.56071027959395        126.5659188177926        8.040569334518267        # O
129  129  1    97.86228519832545        126.5659188177926        8.040569334518267        # O
130  130  1    108.16326533906651       126.5659188177926        8.040569334518267        # O
131  131  1    118.46484020046448       126.5659188177926        8.040569334518267        # O
132  132  1    128.76582039853903       126.5659188177926        8.040569334518267        # O
133  133  1    139.06739525993703       126.5659188177926        8.040569334518267        # O
134  134  1    149.36837540067808       126.5659188177926        8.040569334518267        # O
135  135  1    159.66995031940957       126.5659188177926        8.040569334518267        # O
136  136  1    5.1504900990372855       126.5659188177926        8.040569334518267        # O
137  137  1    15.45206496043526        126.5659188177926        8.040569334518267        # O
138  138  1    25.75304510117631        126.5659188177926        8.040569334518267        # O
139  139  1    36.05462001990781        126.5659188177926        8.040569334518267        # O
140  140  1    46.355600160648855       126.5659188177926        8.040569334518267        # O
141  141  1    56.65717507938035        126.5659188177926        8.040569334518267        # O
142  142  1    66.9581552201214         126.5659188177926        8.040569334518267        # O
143  143  1    77.25973013885292        126.5659188177926        8.040569334518267        # O
144  144  1    87.56071027959395        132.52196203132004       8.040569334518267        # O
145  145  1    97.86228519832545        132.52196203132004       8.040569334518267        # O
146  146  1    108.16326533906651       132.52196203132004       8.040569334518267        # O
147  147  1    118.46484020046448       132.52196203132004       8.040569334518267        # O
148  148  1    128.76582039853903       132.52196203132004       8.040569334518267        # O
149  149  1    139.06739525993703       132.52196203132004       8.040569334518267        # O
150  150  1    149.36837540067808       132.52196203132004       8.040569334518267        # O
151  151  1    159.66995031940957       132.52196203132004       8.040569334518267        # O
152  152  1    5.1504900990372855       132.52196203132004       8.040569334518267        # O
153  153  1    15.45206496043526        132.52196203132004       8.040569334518267        # O
154  154  1    25.75304510117631        132.52196203132004       8.040569334518267        # O
155  155  1    36.05462001990781        132.52196203132004       8.040569334518267        # O
156  156  1    46.355600160648855       132.52196203132004       8.040569334518267        # O
157  157  1    56.65717507938035        132.52196203132004       8.040569334518267        # O
158  158  1    66.9581552201214         132.52196203132004       8.040569334518267        # O
159  159  1    77.25973013885292        132.52196203132004       8.040569334518267        # O
160  160  1    82.41022018055666        135.4999836667505        8.040569334518267        # O
161  161  1    92.71179509928817        135.4999836667505        8.040569334518267        # O
162  162  1    103.01277524002921       135.4999836667505        8.040569334518267        # O
163  163  1    113.3143501587607        135.4999836667505        8.040569334518267        # O
164  164  1    123.61533029950176       135.4999836667505        8.040569334518267        # O
165  165  1    133.91690521823327       135.4999836667505        8.040569334518267        # O
166  166  1    144.2178853589743        135.4999836667505        8.040569334518267        # O
167  167  1    154.51946027770583       135.4999836667505        8.040569334518267        # O
168  168  1    164.82044041844685       135.4999836667505        8.040569334518267        # O
169  169  1    10.3015749187315         135.4999836667505        8.040569334518267        # O
170  170  1    20.60255505947255        135.4999836667505        8.040569334518267        # O
171  171  1    30.90412992087052        135.4999836667505        8.040569334518267        # O
172  172  1    41.2051101189451         135.4999836667505        8.040569334518267        # O
173  173  1    51.50668498034307        135.4999836667505        8.040569334518267        # O
174  174  1    61.807665178417636       135.4999836667505        8.040569334518267        # O
175  175  1    72.10924003981562        135.4999836667505        8.040569334518267        # O
176  176  1    92.71179509928817        141.4560268802779        8.040569334518267        # O
177  177  1    103.01277524002921       141.4560268802779        8.040569334518267        # O
178  178  1    113.3143501587607        141.4560268802779        8.040569334518267        # O
179  179  1    123.61533029950176       141.4560268802779        8.040569334518267        # O
180  180  1    133.91690521823327       141.4560268802779        8.040569334518267        # O
181  181  1    144.2178853589743        141.4560268802779        8.040569334518267        # O
182  182  1    154.51946027770583       141.4560268802779        8.040569334518267        # O
183  183  1    164.82044041844685       141.4560268802779        8.040569334518267        # O
184  184  1    10.3015749187315         141.4560268802779        8.040569334518267        # O
185  185  1    20.60255505947255        141.4560268802779        8.040569334518267        # O
186  186  1    30.90412992087052        141.4560268802779        8.040569334518267        # O
187  187  1    41.2051101189451         141.4560268802779        8.040569334518267        # O
188  188  1    51.50668498034307        141.4560268802779        8.040569334518267        # O
189  189  1    61.807665178417636       141.4560268802779        8.040569334518267        # O
190  190  1    72.10924003981562        141.4560268802779        8.040569334518267        # O
191  191  1    82.41022018055666        141.4560268802779        8.040569334518267        # O
192  192  1    87.56071027959395        1.4890108177152341       8.040569334518267        # O
193  193  1    97.86228519832545        1.4890108177152341       8.040569334518267        # O
194  194  1    108.16326533906651       1.4890108177152341       8.040569334518267        # O
195  195  1    118.46484020046448       1.4890108177152341       8.040569334518267        # O
196  196  1    128.76582039853903       1.4890108177152341       8.040569334518267        # O
197  197  1    139.06739525993703       1.4890108177152341       8.040569334518267        # O
198  198  1    149.36837540067808       1.4890108177152341       8.040569334518267        # O
199  199  1    159.66995031940957       1.4890108177152341       8.040569334518267        # O
200  200  1    5.1504900990372855       1.4890108177152341       8.040569334518267        # O
201  201  1    15.45206496043526        1.4890108177152341       8.040569334518267        # O
202  202  1    25.75304510117631        1.4890108177152341       8.040569334518267        # O
203  203  1    36.05462001990781        1.4890108177152341       8.040569334518267        # O
204  204  1    46.355600160648855       1.4890108177152341       8.040569334518267        # O
205  205  1    56.65717507938035        1.4890108177152341       8.040569334518267        # O
206  206  1    66.9581552201214         1.4890108177152341       8.040569334518267        # O
207  207  1    77.25973013885292        1.4890108177152341       8.040569334518267        # O
208  208  1    87.56071027959395        7.445054031242646        8.040569334518267        # O
209  209  1    97.86228519832545        7.445054031242646        8.040569334518267        # O
210  210  1    108.16326533906651       7.445054031242646        8.040569334518267        # O
211  211  1    118.46484020046448       7.445054031242646        8.040569334518267        # O
212  212  1    128.76582039853903       7.445054031242646        8.040569334518267        # O
213  213  1    139.06739525993703       7.445054031242646        8.040569334518267        # O
214  214  1    149.36837540067808       7.445054031242646        8.040569334518267        # O
215  215  1    159.66995031940957       7.445054031242646        8.040569334518267        # O
216  216  1    5.1504900990372855       7.445054031242646        8.040569334518267        # O
217  217  1    15.45206496043526        7.445054031242646        8.040569334518267        # O
218  218  1    25.75304510117631        7.445054031242646        8.040569334518267        # O
219  219  1    36.05462001990781        7.445054031242646        8.040569334518267        # O
220  220  1    46.355600160648855       7.445054031242646        8.040569334518267        # O
221  221  1    56.65717507938035        7.445054031242646        8.040569334518267        # O
222  222  1    66.9581552201214         7.445054031242646        8.040569334518267        # O
223  223  1    77.25973013885292        7.445054031242646        8.040569334518267        # O
224  224  1    82.41022018055666        10.423075666673116       8.040569334518267        # O
225  225  1    92.71179509928817        10.423075666673116       8.040569334518267        # O
226  226  1    103.01277524002921       10.423075666673116       8.040569334518267        # O
227  227  1    113.3143501587607        10.423075666673116       8.040569334518267        # O
228  228  1    123.61533029950176       10.423075666673116       8.040569334518267        # O
229  229  1    133.91690521823327       10.423075666673116       8.040569334518267        # O
230  230  1    144.2178853589743        10.423075666673116       8.040569334518267        # O
231  231  1    154.51946027770583       10.423075666673116       8.040569334518267        # O
232  232  1    164.82044041844685       10.423075666673116       8.040569334518267        # O
233  233  1    10.3015749187315         10.423075666673116       8.040569334518267        # O
234  234  1    20.60255505947255        10.423075666673116       8.040569334518267        # O
235  235  1    30.90412992087052        10.423075666673116       8.040569334518267        # O
236  236  1    41.2051101189451         10.423075666673116       8.040569334518267        # O
237  237  1    51.50668498034307        10.423075666673116       8.040569334518267        # O
238  238  1    61.807665178417636       10.423075666673116       8.040569334518267        # O
239  239  1    72.10924003981562        10.423075666673116       8.040569334518267        # O
240  240  1    92.71179509928817        16.379118880200526       8.040569334518267        # O
241  241  1    103.01277524002921       16.379118880200526       8.040569334518267        # O
242  242  1    113.3143501587607        16.379118880200526       8.040569334518267        # O
243  243  1    123.61533029950176       16.379118880200526       8.040569334518267        # O
244  244  1    133.91690521823327       16.379118880200526       8.040569334518267        # O
245  245  1    144.2178853589743        16.379118880200526       8.040569334518267        # O
246  246  1    154.51946027770583       16.379118880200526       8.040569334518267        # O
247  247  1    164.82044041844685       16.379118880200526       8.040569334518267        # O
248  248  1    10.3015749187315         16.379118880200526       8.040569334518267        # O
249  249  1    20.60255505947255        16.379118880200526       8.040569334518267        # O
250  250  1    30.90412992087052        16.379118880200526       8.040569334518267        # O
251  251  1    41.2051101189451         16.379118880200526       8.040569334518267        # O
252  252  1    51.50668498034307        16.379118880200526       8.040569334518267        # O
253  253  1    61.807665178417636       16.379118880200526       8.040569334518267        # O
254  254  1    72.10924003981562        16.379118880200526       8.040569334518267        # O
255  255  1    82.41022018055666        16.379118880200526       8.040569334518267        # O
256  256  1    87.56071027959395        19.357140515630995       8.040569334518267        # O
257  257  1    97.86228519832545        19.357140515630995       8.040569334518267        # O
258  258  1    108.16326533906651       19.357140515630995       8.040569334518267        # O
259  259  1    118.46484020046448       19.357140515630995       8.040569334518267        # O
260  260  1    128.76582039853903       19.357140515630995       8.040569334518267        # O
261  261  1    139.06739525993703       19.357140515630995       8.040569334518267        # O
262  262  1    149.36837540067808       19.357140515630995       8.040569334518267        # O
263  263  1    159.66995031940957       19.357140515630995       8.040569334518267        # O
264  264  1    5.1504900990372855       19.357140515630995       8.040569334518267        # O
265  265  1    15.45206496043526        19.357140515630995       8.040569334518267        # O
266  266  1    25.75304510117631        19.357140515630995       8.040569334518267        # O
267  267  1    36.05462001990781        19.357140515630995       8.040569334518267        # O
268  268  1    46.355600160648855       19.357140515630995       8.040569334518267        # O
269  269  1    56.65717507938035        19.357140515630995       8.040569334518267        # O
270  270  1    66.9581552201214         19.357140515630995       8.040569334518267        # O
271  271  1    77.25973013885292        19.357140515630995       8.040569334518267        # O
272  272  1    87.56071027959395        25.313183786491933       8.040569334518267        # O
273  273  1    97.86228519832545        25.313183786491933       8.040569334518267        # O
274  274  1    108.16326533906651       25.313183786491933       8.040569334518267        # O
275  275  1    118.46484020046448       25.313183786491933       8.040569334518267        # O
276  276  1    128.76582039853903       25.313183786491933       8.040569334518267        # O
277  277  1    139.06739525993703       25.313183786491933       8.040569334518267        # O
278  278  1    149.36837540067808       25.313183786491933       8.040569334518267        # O
279  279  1    159.66995031940957       25.313183786491933       8.040569334518267        # O
280  280  1    5.1504900990372855       25.313183786491933       8.040569334518267        # O
281  281  1    15.45206496043526        25.313183786491933       8.040569334518267        # O
282  282  1    25.75304510117631        25.313183786491933       8.040569334518267        # O
283  283  1    36.05462001990781        25.313183786491933       8.040569334518267        # O
284  284  1    46.355600160648855       25.313183786491933       8.040569334518267        # O
285  285  1    56.65717507938035        25.313183786491933       8.040569334518267        # O
286  286  1    66.9581552201214         25.313183786491933       8.040569334518267        # O
287  287  1    77.25973013885292        25.313183786491933       8.040569334518267        # O
288  288  1    82.41022018055666        28.291205364588876       8.040569334518267        # O
289  289  1    92.71179509928817        28.291205364588876       8.040569334518267        # O
290  290  1    103.01277524002921       28.291205364588876       8.040569334518267        # O
291  291  1    113.3143501587607        28.291205364588876       8.040569334518267        # O
292  292  1    123.61533029950176       28.291205364588876       8.040569334518267        # O
293  293  1    133.91690521823327       28.291205364588876       8.040569334518267        # O
294  294  1    144.2178853589743        28.291205364588876       8.040569334518267        # O
295  295  1    154.51946027770583       28.291205364588876       8.040569334518267        # O
296  296  1    164.82044041844685       28.291205364588876       8.040569334518267        # O
297  297  1    10.3015749187315         28.291205364588876       8.040569334518267        # O
298  298  1    20.60255505947255        28.291205364588876       8.040569334518267        # O
299  299  1    30.90412992087052        28.291205364588876       8.040569334518267        # O
300  300  1    41.2051101189451         28.291205364588876       8.040569334518267        # O
301  301  1    51.50668498034307        28.291205364588876       8.040569334518267        # O
302  302  1    61.807665178417636       28.291205364588876       8.040569334518267        # O
303  303  1    72.10924003981562        28.291205364588876       8.040569334518267        # O
304  304  1    92.71179509928817        34.24724863544981        8.040569334518267        # O
305  305  1    103.01277524002921       34.24724863544981        8.040569334518267        # O
306  306  1    113.3143501587607        34.24724863544981        8.040569334518267        # O
307  307  1    123.61533029950176       34.24724863544981        8.040569334518267        # O
308  308  1    133.91690521823327       34.24724863544981        8.040569334518267        # O
309  309  1    144.2178853589743        34.24724863544981        8.040569334518267        # O
310  310  1    154.51946027770583       34.24724863544981        8.040569334518267        # O
311  311  1    164.82044041844685       34.24724863544981        8.040569334518267        # O
312  312  1    10.3015749187315         34.24724863544981        8.040569334518267        # O
313  313  1    20.60255505947255        34.24724863544981        8.040569334518267        # O
314  314  1    30.90412992087052        34.24724863544981        8.040569334518267        # O