LAMMPS (22 Jul 2025 - Update 1)
OMP_NUM_THREADS environment is not set. Defaulting to 1 thread.
  using 1 OpenMP thread(s) per MPI task
Reading data file ...
  orthogonal box = (0 0 -0.5) to (43.50862 37.67957 0.5)
  1 by 1 by 1 MPI processor grid
  reading atoms ...
  1262 atoms
  scanning bonds ...
  3 = max bonds/atom
  scanning angles ...
  3 = max angles/atom
  orthogonal box = (0 0 -0.5) to (43.50862 37.67957 0.5)
  1 by 1 by 1 MPI processor grid
  reading bonds ...
  1893 bonds
  reading angles ...
  3786 angles
Finding 1-2 1-3 1-4 neighbors ...
  special bond factors lj:    0        0        0       
  special bond factors coul:  0        0        0       
     3 = max # of 1-2 neighbors
     6 = max # of 1-3 neighbors
    18 = max # of 1-4 neighbors
    18 = max # of special neighbors
  special bonds CPU = 0.001 seconds
  read_data CPU = 0.022 seconds
Changing box ...
  orthogonal box = (-0.45452243 0 -0.5) to (43.963142 37.67957 0.5)
  orthogonal box = (-0.45452243 -0.34727802 -0.5) to (43.963142 38.026848 0.5)
Setting up sd style minimization ...
  Unit style    : electron
  Current step  : 0
WARNING: No pairwise cutoff or binsize set. Atom sorting therefore disabled. (src/atom.cpp:2499)
WARNING: Inconsistent image flags
For more information see https://docs.lammps.org/err0027 (src/domain.cpp:1052)
Per MPI rank memory allocation (min/avg/max) = 8.516 | 8.516 | 8.516 Mbytes
---
keywords: ['Step', 'PotEng', 'KinEng', 'E_pair', 'E_bond', 'TotEng', 'Volume', 'Temp', ]
data:
  - [0, 13.042168556997, 0, 0, 8.922230752708, 13.042168556997, 1704.48906584865, 0, ]
  - [695, 7.21845042591354, 0, 0, 3.23845391253003, 7.21845042591354, 1704.48906584865, 0, ]
...
Loop time of 0.300843 on 1 procs for 695 steps with 1262 atoms

99.8% CPU use with 1 MPI tasks x 1 OpenMP threads

Minimization stats:
  Stopping criterion = energy tolerance
  Energy initial, next-to-last, final = 
       13.042168556997   7.21845762899464   7.21845042591354
  Force two-norm initial, final = 7.1757258 0.0087235768
  Force max component initial, final = 1.8662648 0.00047020822
  Final line search alpha, max atom move = 1 0.00047020822
  Iterations, force evaluations = 695 1387

MPI task timing breakdown:
Section |  min time  |  avg time  |  max time  |%varavg| %total
---------------------------------------------------------------
Pair    | 0          | 0          | 0          |   0.0 |  0.00
Bond    | 0.27319    | 0.27319    | 0.27319    |   0.0 | 90.81
Neigh   | 0          | 0          | 0          |   0.0 |  0.00
Comm    | 0.0032512  | 0.0032512  | 0.0032512  |   0.0 |  1.08
Output  | 0          | 0          | 0          |   0.0 |  0.00
Modify  | 0          | 0          | 0          |   0.0 |  0.00
Other   |            | 0.0244     |            |       |  8.11

Nlocal:           1262 ave        1262 max        1262 min
Histogram: 1 0 0 0 0 0 0 0 0 0
Nghost:            539 ave         539 max         539 min
Histogram: 1 0 0 0 0 0 0 0 0 0
Neighs:              0 ave           0 max           0 min
Histogram: 1 0 0 0 0 0 0 0 0 0

Total # of neighbors = 0
Ave neighs/atom = 0
Ave special neighs/atom = 17.916006
Neighbor list builds = 0
Dangerous builds = 0
Total wall time: 0:00:00
