DATA FILE Produced from netmc results (cf David Morley)
1262 atoms
1893 bonds
3786 angles
0 dihedrals
0 impropers
1 atom types
1 bond types
1 angle types
0 dihedral types
0 improper types
0.00000 45.96059065 xlo xhi
0.00000 39.71963854 ylo yhi

# Pair Coeffs
#
# 1  Si

# Bond Coeffs
# 
# 1  Si-Si

# Angle Coeffs
# 
# 1  Si-Si-Si

 Masses

1 32.01000 # Si

 Atoms # molecular

1    1    1    29.16725879              21.13288461              0.0                     # Si
2    2    1    30.93502402              21.13288461              0.0                     # Si
3    3    1    32.7026872               21.13288461              0.0                     # Si
4    4    1    34.47045243              21.13288461              0.0                     # Si
5    5    1    36.2381156               21.13288461              0.0                     # Si
6    6    1    38.00588083              21.13288461              0.0                     # Si
7    7    1    39.773544                21.13288461              0.0                     # Si
8    8    1    41.54130923              21.13288461              0.0                     # Si
9    9    1    43.3089724               21.13288461              0.0                     # Si
10   10   1    45.07673763              21.13288461              0.0                     # Si
11   11   1    0.88383159               21.13288461              0.0                     # Si
12   12   1    2.65159682               21.13288461              0.0                     # Si
13   13   1    4.41925999               21.13288461              0.0                     # Si
14   14   1    6.18702522               21.13288461              0.0                     # Si
15   15   1    7.95468839               21.13288461              0.0                     # Si
16   16   1    9.72245362               21.13288461              0.0                     # Si
17   17   1    11.49011679              21.13288461              0.0                     # Si
18   18   1    13.25788202              21.13288461              0.0                     # Si
19   19   1    15.02554519              21.13288461              0.0                     # Si
20   20   1    16.79331042              21.13288461              0.0                     # Si
21   21   1    28.28342721              21.64211074              0.0                     # Si
22   22   1    30.05119244              21.64211074              0.0                     # Si
23   23   1    31.81885561              21.64211074              0.0                     # Si
24   24   1    33.58662084              21.64211074              0.0                     # Si
25   25   1    35.35428401              21.64211074              0.0                     # Si
26   26   1    37.12204924              21.64211074              0.0                     # Si
27   27   1    38.88971241              21.64211074              0.0                     # Si
28   28   1    40.65747764              21.64211074              0.0                     # Si
29   29   1    42.42514081              21.64211074              0.0                     # Si
30   30   1    44.19290604              21.64211074              0.0                     # Si
31   31   1    45.96056922              21.64211074              0.0                     # Si
32   32   1    1.76776523               21.64211074              0.0                     # Si
33   33   1    3.5354284                21.64211074              0.0                     # Si
34   34   1    5.30319363               21.64211074              0.0                     # Si
35   35   1    7.0708568                21.64211074              0.0                     # Si
36   36   1    8.83862203               21.64211074              0.0                     # Si
37   37   1    10.6062852               21.64211074              0.0                     # Si
38   38   1    12.37405043              21.64211074              0.0                     # Si
39   39   1    14.1417136               21.64211074              0.0                     # Si
40   40   1    15.90947883              21.64211074              0.0                     # Si
41   41   1    17.67714201              21.64211074              0.0                     # Si
42   42   1    28.28342721              22.66056301              0.0                     # Si
43   43   1    30.05119244              22.66056301              0.0                     # Si
44   44   1    31.81885561              22.66056301              0.0                     # Si
45   45   1    33.58662084              22.66056301              0.0                     # Si
46   46   1    35.35428401              22.66056301              0.0                     # Si
47   47   1    37.12204924              22.66056301              0.0                     # Si
48   48   1    38.88971241              22.66056301              0.0                     # Si
49   49   1    40.65747764              22.66056301              0.0                     # Si
50   50   1    42.42514081              22.66056301              0.0                     # Si
51   51   1    44.19290604              22.66056301              0.0                     # Si
52   52   1    45.96056922              22.66056301              0.0                     # Si
53   53   1    1.76776523               22.66056301              0.0                     # Si
54   54   1    3.5354284                22.66056301              0.0                     # Si
55   55   1    5.30319363               22.66056301              0.0                     # Si
56   56   1    7.0708568                22.66056301              0.0                     # Si
57   57   1    8.83862203               22.66056301              0.0                     # Si
58   58   1    10.6062852               22.66056301              0.0                     # Si
59   59   1    12.37405043              22.66056301              0.0                     # Si
60   60   1    14.1417136               22.66056301              0.0                     # Si
61   61   1    15.90947883              22.66056301              0.0                     # Si
62   62   1    17.67714201              22.66056301              0.0                     # Si
63   63   1    29.16725879              23.16978915              0.0                     # Si
64   64   1    30.93502402              23.16978915              0.0                     # Si
65   65   1    32.7026872               23.16978915              0.0                     # Si
66   66   1    34.47045243              23.16978915              0.0                     # Si
67   67   1    36.2381156               23.16978915              0.0                     # Si
68   68   1    38.00588083              23.16978915              0.0                     # Si
69   69   1    39.773544                23.16978915              0.0                     # Si
70   70   1    41.54130923              23.16978915              0.0                     # Si
71   71   1    43.3089724               23.16978915              0.0                     # Si
72   72   1    45.07673763              23.16978915              0.0                     # Si
73   73   1    0.88383159               23.16978915              0.0                     # Si
74   74   1    2.65159682               23.16978915              0.0                     # Si
75   75   1    4.41925999               23.16978915              0.0                     # Si
76   76   1    6.18702522               23.16978915              0.0                     # Si
77   77   1    7.95468839               23.16978915              0.0                     # Si
78   78   1    9.72245362               23.16978915              0.0                     # Si
79   79   1    11.49011679              23.16978915              0.0                     # Si
80   80   1    13.25788202              23.16978915              0.0                     # Si
81   81   1    15.02554519              23.16978915              0.0                     # Si
82   82   1    16.79331042              23.16978915              0.0                     # Si
83   83   1    27.39959562              24.18824142              0.0                     # Si
84   84   1    29.16725879              24.18824142              0.0                     # Si
85   85   1    30.93502402              24.18824142              0.0                     # Si
86   86   1    32.7026872               24.18824142              0.0                     # Si
87   87   1    34.47045243              24.18824142              0.0                     # Si
88   88   1    36.2381156               24.18824142              0.0                     # Si
89   89   1    38.00588083              24.18824142              0.0                     # Si
90   90   1    39.773544                24.18824142              0.0                     # Si
91   91   1    41.54130923              24.18824142              0.0                     # Si
92   92   1    43.3089724               24.18824142              0.0                     # Si
93   93   1    45.07673763              24.18824142              0.0                     # Si
94   94   1    0.88383159               24.18824142              0.0                     # Si
95   95   1    2.65159682               24.18824142              0.0                     # Si
96   96   1    4.41925999               24.18824142              0.0                     # Si
97   97   1    6.18702522               24.18824142              0.0                     # Si
98   98   1    7.95468839               24.18824142              0.0                     # Si
99   99   1    9.72245362               24.18824142              0.0                     # Si
100  100  1    11.49011679              24.18824142              0.0                     # Si
101  101  1    13.25788202              24.18824142              0.0                     # Si
102  102  1    15.02554519              24.18824142              0.0                     # Si
103  103  1    16.79331042              24.18824142              0.0                     # Si
104  104  1    18.56097359              24.18824142              0.0                     # Si
105  105  1    28.28342721              24.69746755              0.0                     # Si
106  106  1    30.05119244              24.69746755              0.0                     # Si
107  107  1    31.81885561              24.69746755              0.0                     # Si
108  108  1    33.58662084              24.69746755              0.0                     # Si
109  109  1    35.35428401              24.69746755              0.0                     # Si
110  110  1    37.12204924              24.69746755              0.0                     # Si
111  111  1    38.88971241              24.69746755              0.0                     # Si
112  112  1    40.65747764              24.69746755              0.0                     # Si
113  113  1    42.42514081              24.69746755              0.0                     # Si
114  114  1    44.19290604              24.69746755              0.0                     # Si
115  115  1    45.96056922              24.69746755              0.0                     # Si
116  116  1    1.76776523               24.69746755              0.0                     # Si
117  117  1    3.5354284                24.69746755              0.0                     # Si
118  118  1    5.30319363               24.69746755              0.0                     # Si
119  119  1    7.0708568                24.69746755              0.0                     # Si
120  120  1    8.83862203               24.69746755              0.0                     # Si
121  121  1    10.6062852               24.69746755              0.0                     # Si
122  122  1    12.37405043              24.69746755              0.0                     # Si
123  123  1    14.1417136               24.69746755              0.0                     # Si
124  124  1    15.90947883              24.69746755              0.0                     # Si
125  125  1    17.67714201              24.69746755              0.0                     # Si
126  126  1    26.51576404              25.71591982              0.0                     # Si
127  127  1    28.28342721              25.71591982              0.0                     # Si
128  128  1    30.05119244              25.71591982              0.0                     # Si
129  129  1    31.81885561              25.71591982              0.0                     # Si
130  130  1    33.58662084              25.71591982              0.0                     # Si
131  131  1    35.35428401              25.71591982              0.0                     # Si
132  132  1    37.12204924              25.71591982              0.0                     # Si
133  133  1    38.88971241              25.71591982              0.0                     # Si
134  134  1    40.65747764              25.71591982              0.0                     # Si
135  135  1    42.42514081              25.71591982              0.0                     # Si
136  136  1    44.19290604              25.71591982              0.0                     # Si
137  137  1    45.96056922              25.71591982              0.0                     # Si
138  138  1    1.76776523               25.71591982              0.0                     # Si
139  139  1    3.5354284                25.71591982              0.0                     # Si
140  140  1    5.30319363               25.71591982              0.0                     # Si
141  141  1    7.0708568                25.71591982              0.0                     # Si
142  142  1    8.83862203               25.71591982              0.0                     # Si
143  143  1    10.6062852               25.71591982              0.0                     # Si
144  144  1    12.37405043              25.71591982              0.0                     # Si
145  145  1    14.1417136               25.71591982              0.0                     # Si
146  146  1    15.90947883              25.71591982              0.0                     # Si
147  147  1    17.67714201              25.71591982              0.0                     # Si
148  148  1    19.44490724              25.71591982              0.0                     # Si
149  149  1    23.86416722              26.22514596              0.0                     # Si
150  150  1    25.63183039              26.22514596              0.0                     # Si
151  151  1    27.39959562              26.22514596              0.0                     # Si
152  152  1    29.16725879              26.22514596              0.0                     # Si
153  153  1    30.93502402              26.22514596              0.0                     # Si
154  154  1    32.7026872               26.22514596              0.0                     # Si
155  155  1    34.47045243              26.22514596              0.0                     # Si
156  156  1    36.2381156               26.22514596              0.0                     # Si
157  157  1    38.00588083              26.22514596              0.0                     # Si
158  158  1    39.773544                26.22514596              0.0                     # Si
159  159  1    41.54130923              26.22514596              0.0                     # Si
160  160  1    43.3089724               26.22514596              0.0                     # Si
161  161  1    45.07673763              26.22514596              0.0                     # Si
162  162  1    0.88383159               26.22514596              0.0                     # Si
163  163  1    2.65159682               26.22514596              0.0                     # Si
164  164  1    4.41925999               26.22514596              0.0                     # Si
165  165  1    6.18702522               26.22514596              0.0                     # Si
166  166  1    7.95468839               26.22514596              0.0                     # Si
167  167  1    9.72245362               26.22514596              0.0                     # Si
168  168  1    11.49011679              26.22514596              0.0                     # Si
169  169  1    13.25788202              26.22514596              0.0                     # Si
170  170  1    15.02554519              26.22514596              0.0                     # Si
171  171  1    16.79331042              26.22514596              0.0                     # Si
172  172  1    18.56097359              26.22514596              0.0                     # Si
173  173  1    20.32873882              26.22514596              0.0                     # Si
174  174  1    22.09640199              26.22514596              0.0                     # Si
175  175  1    23.86416722              27.24359823              0.0                     # Si
176  176  1    25.63183039              27.24359823              0.0                     # Si
177  177  1    27.39959562              27.24359823              0.0                     # Si
178  178  1    29.16725879              27.24359823              0.0                     # Si
179  179  1    30.93502402              27.24359823              0.0                     # Si
180  180  1    32.7026872               27.24359823              0.0                     # Si
181  181  1    34.47045243              27.24359823              0.0                     # Si
182  182  1    36.2381156               27.24359823              0.0                     # Si
183  183  1    38.00588083              27.24359823              0.0                     # Si
184  184  1    39.773544                27.24359823              0.0                     # Si
185  185  1    41.54130923              27.24359823              0.0                     # Si
186  186  1    43.3089724               27.24359823              0.0                     # Si
187  187  1    45.07673763              27.24359823              0.0                     # Si
188  188  1    0.88383159               27.24359823              0.0                     # Si
189  189  1    2.65159682               27.24359823              0.0                     # Si
190  190  1    4.41925999               27.24359823              0.0                     # Si
191  191  1    6.18702522               27.24359823              0.0                     # Si
192  192  1    7.95468839               27.24359823              0.0                     # Si
193  193  1    9.72245362               27.24359823              0.0                     # Si
194  194  1    11.49011679              27.24359823              0.0                     # Si
195  195  1    13.25788202              27.24359823              0.0                     # Si
196  196  1    15.02554519              27.24359823              0.0                     # Si
197  197  1    16.79331042              27.24359823              0.0                     # Si
198  198  1    18.56097359              27.24359823              0.0                     # Si
199  199  1    20.32873882              27.24359823              0.0                     # Si
200  200  1    22.09640199              27.24359823              0.0                     # Si
201  201  1    22.98033564              27.75282437              0.0                     # Si
202  202  1    24.74799881              27.75282437              0.0                     # Si
203  203  1    26.51576404              27.75282437              0.0                     # Si
204  204  1    28.28342721              27.75282437              0.0                     # Si
205  205  1    30.05119244              27.75282437              0.0                     # Si
206  206  1    31.81885561              27.75282437              0.0                     # Si
207  207  1    33.58662084              27.75282437              0.0                     # Si
208  208  1    35.35428401              27.75282437              0.0                     # Si
209  209  1    37.12204924              27.75282437              0.0                     # Si
210  210  1    38.88971241              27.75282437              0.0                     # Si
211  211  1    40.65747764              27.75282437              0.0                     # Si
212  212  1    42.42514081              27.75282437              0.0                     # Si
213  213  1    44.19290604              27.75282437              0.0                     # Si
214  214  1    45.96056922              27.75282437              0.0                     # Si
215  215  1    1.76776523               27.75282437              0.0                     # Si
216  216  1    3.5354284                27.75282437              0.0                     # Si
217  217  1    5.30319363               27.75282437              0.0                     # Si
218  218  1    7.0708568                27.75282437              0.0                     # Si
219  219  1    8.83862203               27.75282437              0.0                     # Si
220  220  1    10.6062852               27.75282437              0.0                     # Si
221  221  1    12.37405043              27.75282437              0.0                     # Si
222  222  1    14.1417136               27.75282437              0.0                     # Si
223  223  1    15.90947883              27.75282437              0.0                     # Si
224  224  1    17.67714201              27.75282437              0.0                     # Si
225  225  1    19.44490724              27.75282437              0.0                     # Si
226  226  1    21.21257041              27.75282437              0.0                     # Si
227  227  1    24.74799881              28.77127664              0.0                     # Si
228  228  1    26.51576404              28.77127664              0.0                     # Si
229  229  1    28.28342721              28.77127664              0.0                     # Si
230  230  1    30.05119244              28.77127664              0.0                     # Si
231  231  1    31.81885561              28.77127664              0.0                     # Si
232  232  1    33.58662084              28.77127664              0.0                     # Si
233  233  1    35.35428401              28.77127664              0.0                     # Si
234  234  1    37.12204924              28.77127664              0.0                     # Si
235  235  1    38.88971241              28.77127664              0.0                     # Si
236  236  1    40.65747764              28.77127664              0.0                     # Si
237  237  1    42.42514081              28.77127664              0.0                     # Si
238  238  1    44.19290604              28.77127664              0.0                     # Si
239  239  1    45.96056922              28.77127664              0.0                     # Si
240  240  1    1.76776523               28.77127664              0.0                     # Si
241  241  1    3.5354284                28.77127664              0.0                     # Si
242  242  1    5.30319363               28.77127664              0.0                     # Si
243  243  1    7.0708568                28.77127664              0.0                     # Si
244  244  1    8.83862203               28.77127664              0.0                     # Si
245  245  1    10.6062852               28.77127664              0.0                     # Si
246  246  1    12.37405043              28.77127664              0.0                     # Si
247  247  1    14.1417136               28.77127664              0.0                     # Si
248  248  1    15.90947883              28.77127664              0.0                     # Si
249  249  1    17.67714201              28.77127664              0.0                     # Si
250  250  1    19.44490724              28.77127664              0.0                     # Si
251  251  1    21.21257041              28.77127664              0.0                     # Si
252  252  1    22.98033564              28.77127664              0.0                     # Si
253  253  1    23.86416722              29.28050277              0.0                     # Si
254  254  1    25.63183039              29.28050277              0.0                     # Si
255  255  1    27.39959562              29.28050277              0.0                     # Si
256  256  1    29.16725879              29.28050277              0.0                     # Si
257  257  1    30.93502402              29.28050277              0.0                     # Si
258  258  1    32.7026872               29.28050277              0.0                     # Si
259  259  1    34.47045243              29.28050277              0.0                     # Si
260  260  1    36.2381156               29.28050277              0.0                     # Si
261  261  1    38.00588083              29.28050277              0.0                     # Si
262  262  1    39.773544                29.28050277              0.0                     # Si
263  263  1    41.54130923              29.28050277              0.0                     # Si
264  264  1    43.3089724               29.28050277              0.0                     # Si
265  265  1    45.07673763              29.28050277              0.0                     # Si
266  266  1    0.88383159               29.28050277              0.0                     # Si
267  267  1    2.65159682               29.28050277              0.0                     # Si
268  268  1    4.41925999               29.28050277              0.0                     # Si
269  269  1    6.18702522               29.28050277              0.0                     # Si
270  270  1    7.95468839               29.28050277              0.0                     # Si
271  271  1    9.72245362               29.28050277              0.0                     # Si
272  272  1    11.49011679              29.28050277              0.0                     # Si
273  273  1    13.25788202              29.28050277              0.0                     # Si
274  274  1    15.02554519              29.28050277              0.0                     # Si
275  275  1    16.79331042              29.28050277              0.0                     # Si
276  276  1    18.56097359              29.28050277              0.0                     # Si
277  277  1    20.32873882              29.28050277              0.0                     # Si
278  278  1    22.09640199              29.28050277              0.0                     # Si
279  279  1    23.86416722              30.29895504              0.0                     # Si
280  280  1    25.63183039              30.29895504              0.0                     # Si
281  281  1    27.39959562              30.29895504              0.0                     # Si
282  282  1    29.16725879              30.29895504              0.0                     # Si
283  283  1    30.93502402              30.29895504              0.0                     # Si
284  284  1    32.7026872               30.29895504              0.0                     # Si
285  285  1    34.47045243              30.29895504              0.0                     # Si
286  286  1    36.2381156               30.29895504              0.0                     # Si
287  287  1    38.00588083              30.29895504              0.0                     # Si
288  288  1    39.773544                30.29895504              0.0                     # Si
289  289  1    41.54130923              30.29895504              0.0                     # Si
290  290  1    43.3089724               30.29895504              0.0                     # Si
291  291  1    45.07673763              30.29895504              0.0                     # Si
292  292  1    0.88383159               30.29895504              0.0                     # Si
293  293  1    2.65159682               30.29895504              0.0                     # Si
294  294  1    4.41925999               30.29895504              0.0                     # Si
295  295  1    6.18702522               30.29895504              0.0                     # Si
296  296  1    7.95468839               30.29895504              0.0                     # Si
297  297  1    9.72245362               30.29895504              0.0                     # Si
298  298  1    11.49011679              30.29895504              0.0                     # Si
299  299  1    13.25788202              30.29895504              0.0                     # Si
300  300  1    15.02554519              30.29895504              0.0                     # Si
301  301  1    16.79331042              30.29895504              0.0                     # Si
302  302  1    18.56097359              30.29895504              0.0                     # Si
303  303  1    20.32873882              30.29895504              0.0                     # Si
304  304  1    22.09640199              30.29895504              0.0                     # Si
305  305  1    22.98033564              30.80818118              0.0                     # Si
306  306  1    24.74799881              30.80818118              0.0                     # Si
307  307  1    26.51576404              30.80818118              0.0                     # Si
308  308  1    28.28342721              30.80818118              0.0                     # Si
309  309  1    30.05119244              30.80818118              0.0                     # Si
310  310  1    31.81885561              30.80818118              0.0                     # Si
311  311  1    33.58662084              30.80818118              0.0                     # Si
312  312  1    35.35428401              30.80818118              0.0                     # Si
313  313  1    37.12204924              30.80818118              0.0                     # Si
314  314  1    38.88971241              30.80818118              0.0                     # Si
315  315  1    40.65747764              30.80818118              0.0                     # Si