DATA FILE Produced from netmc results (cf David Morley)
7572 atoms
25240 bonds
0 angles
0 dihedrals
0 impropers
2 atom types
0 bond types
2 bond types
0 angle types
0 dihedral types
0 improper types
0.00000 263.50826823682496 xlo xhi
0.00000 227.72668972799744 ylo yhi
0.0000 200.0000 zlo zhi

# Pair Coeffs
#
# 1  O
# 2  Si

# Bond Coeffs
# 
# 1  O-O
# 2  Si-O
# 3  O-O rep
# 4  Si-Si rep

 Masses

1 28.10000 # O 
2 32.01000 # Si

 Atoms # molecular

1    1    1    167.22617669336265       121.16227723957135       8.040569334518267        # O
2    2    1    177.36139793004998       121.16227723957135       8.040569334518267        # O
3    3    1    187.4960340781126        121.16227723957135       8.040569334518267        # O
4    4    1    197.63125531479992       121.16227723957135       8.040569334518267        # O
5    5    1    207.765891405529         121.16227723957135       8.040569334518267        # O
6    6    1    217.90111264221633       121.16227723957135       8.040569334518267        # O
7    7    1    228.03574873294542       121.16227723957135       8.040569334518267        # O
8    8    1    238.17096996963275       121.16227723957135       8.040569334518267        # O
9    9    1    248.30560606036184       121.16227723957135       8.040569334518267        # O
10   10   1    258.4408272970491        121.16227723957135       8.040569334518267        # O
11   11   1    5.067318074031312        121.16227723957135       8.040569334518267        # O
12   12   1    15.20253931071863        121.16227723957135       8.040569334518267        # O
13   13   1    25.337175401447727       121.16227723957135       8.040569334518267        # O
14   14   1    35.472396638135045       121.16227723957135       8.040569334518267        # O
15   15   1    45.60703272886415        121.16227723957135       8.040569334518267        # O
16   16   1    55.74225396555146        121.16227723957135       8.040569334518267        # O
17   17   1    65.87689005628056        121.16227723957135       8.040569334518267        # O
18   18   1    76.01211129296789        121.16227723957135       8.040569334518267        # O
19   19   1    86.14674738369698        121.16227723957135       8.040569334518267        # O
20   20   1    96.2819686203843         121.16227723957135       8.040569334518267        # O
21   21   1    162.15885867666486       124.08185015540026       8.040569334518267        # O
22   22   1    172.2940799133522        124.08185015540026       8.040569334518267        # O
23   23   1    182.42871600408128       124.08185015540026       8.040569334518267        # O
24   24   1    192.5639372407686        124.08185015540026       8.040569334518267        # O
25   25   1    202.6985733314977        124.08185015540026       8.040569334518267        # O
26   26   1    212.83379456818503       124.08185015540026       8.040569334518267        # O
27   27   1    222.96843065891412       124.08185015540026       8.040569334518267        # O
28   28   1    233.10365189560144       124.08185015540026       8.040569334518267        # O
29   29   1    243.23828798633053       124.08185015540026       8.040569334518267        # O
30   30   1    253.37350922301783       124.08185015540026       8.040569334518267        # O
31   31   1    263.50814537108045       124.08185015540026       8.040569334518267        # O
32   32   1    10.135221236687318       124.08185015540026       8.040569334518267        # O
33   33   1    20.269857327416414       124.08185015540026       8.040569334518267        # O
34   34   1    30.405078564103736       124.08185015540026       8.040569334518267        # O
35   35   1    40.53971465483283        124.08185015540026       8.040569334518267        # O
36   36   1    50.67493589152015        124.08185015540026       8.040569334518267        # O
37   37   1    60.80957198224925        124.08185015540026       8.040569334518267        # O
38   38   1    70.94479321893657        124.08185015540026       8.040569334518267        # O
39   39   1    81.07942930966566        124.08185015540026       8.040569334518267        # O
40   40   1    91.21465054635298        124.08185015540026       8.040569334518267        # O
41   41   1    101.34928669441561       124.08185015540026       8.040569334518267        # O
42   42   1    162.15885867666486       129.92099604439164       8.040569334518267        # O
43   43   1    172.2940799133522        129.92099604439164       8.040569334518267        # O
44   44   1    182.42871600408128       129.92099604439164       8.040569334518267        # O
45   45   1    192.5639372407686        129.92099604439164       8.040569334518267        # O
46   46   1    202.6985733314977        129.92099604439164       8.040569334518267        # O
47   47   1    212.83379456818503       129.92099604439164       8.040569334518267        # O
48   48   1    222.96843065891412       129.92099604439164       8.040569334518267        # O
49   49   1    233.10365189560144       129.92099604439164       8.040569334518267        # O
50   50   1    243.23828798633053       129.92099604439164       8.040569334518267        # O
51   51   1    253.37350922301783       129.92099604439164       8.040569334518267        # O
52   52   1    263.50814537108045       129.92099604439164       8.040569334518267        # O
53   53   1    10.135221236687318       129.92099604439164       8.040569334518267        # O
54   54   1    20.269857327416414       129.92099604439164       8.040569334518267        # O
55   55   1    30.405078564103736       129.92099604439164       8.040569334518267        # O
56   56   1    40.53971465483283        129.92099604439164       8.040569334518267        # O
57   57   1    50.67493589152015        129.92099604439164       8.040569334518267        # O
58   58   1    60.80957198224925        129.92099604439164       8.040569334518267        # O
59   59   1    70.94479321893657        129.92099604439164       8.040569334518267        # O
60   60   1    81.07942930966566        129.92099604439164       8.040569334518267        # O
61   61   1    91.21465054635298        129.92099604439164       8.040569334518267        # O
62   62   1    101.34928669441561       129.92099604439164       8.040569334518267        # O
63   63   1    167.22617669336265       132.84056901755412       8.040569334518267        # O
64   64   1    177.36139793004998       132.84056901755412       8.040569334518267        # O
65   65   1    187.4960340781126        132.84056901755412       8.040569334518267        # O
66   66   1    197.63125531479992       132.84056901755412       8.040569334518267        # O
67   67   1    207.765891405529         132.84056901755412       8.040569334518267        # O
68   68   1    217.90111264221633       132.84056901755412       8.040569334518267        # O
69   69   1    228.03574873294542       132.84056901755412       8.040569334518267        # O
70   70   1    238.17096996963275       132.84056901755412       8.040569334518267        # O
71   71   1    248.30560606036184       132.84056901755412       8.040569334518267        # O
72   72   1    258.4408272970491        132.84056901755412       8.040569334518267        # O
73   73   1    5.067318074031312        132.84056901755412       8.040569334518267        # O
74   74   1    15.20253931071863        132.84056901755412       8.040569334518267        # O
75   75   1    25.337175401447727       132.84056901755412       8.040569334518267        # O
76   76   1    35.472396638135045       132.84056901755412       8.040569334518267        # O
77   77   1    45.60703272886415        132.84056901755412       8.040569334518267        # O
78   78   1    55.74225396555146        132.84056901755412       8.040569334518267        # O
79   79   1    65.87689005628056        132.84056901755412       8.040569334518267        # O
80   80   1    76.01211129296789        132.84056901755412       8.040569334518267        # O
81   81   1    86.14674738369698        132.84056901755412       8.040569334518267        # O
82   82   1    96.2819686203843         132.84056901755412       8.040569334518267        # O
83   83   1    157.09154060263353       138.67971490654548       8.040569334518267        # O
84   84   1    167.22617669336265       138.67971490654548       8.040569334518267        # O
85   85   1    177.36139793004998       138.67971490654548       8.040569334518267        # O
86   86   1    187.4960340781126        138.67971490654548       8.040569334518267        # O
87   87   1    197.63125531479992       138.67971490654548       8.040569334518267        # O
88   88   1    207.765891405529         138.67971490654548       8.040569334518267        # O
89   89   1    217.90111264221633       138.67971490654548       8.040569334518267        # O
90   90   1    228.03574873294542       138.67971490654548       8.040569334518267        # O
91   91   1    238.17096996963275       138.67971490654548       8.040569334518267        # O
92   92   1    248.30560606036184       138.67971490654548       8.040569334518267        # O
93   93   1    258.4408272970491        138.67971490654548       8.040569334518267        # O
94   94   1    5.067318074031312        138.67971490654548       8.040569334518267        # O
95   95   1    15.20253931071863        138.67971490654548       8.040569334518267        # O
96   96   1    25.337175401447727       138.67971490654548       8.040569334518267        # O
97   97   1    35.472396638135045       138.67971490654548       8.040569334518267        # O
98   98   1    45.60703272886415        138.67971490654548       8.040569334518267        # O
99   99   1    55.74225396555146        138.67971490654548       8.040569334518267        # O
100  100  1    65.87689005628056        138.67971490654548       8.040569334518267        # O
101  101  1    76.01211129296789        138.67971490654548       8.040569334518267        # O
102  102  1    86.14674738369698        138.67971490654548       8.040569334518267        # O
103  103  1    96.2819686203843         138.67971490654548       8.040569334518267        # O
104  104  1    106.4166047111134        138.67971490654548       8.040569334518267        # O
105  105  1    162.15885867666486       141.5992878223744        8.040569334518267        # O
106  106  1    172.2940799133522        141.5992878223744        8.040569334518267        # O
107  107  1    182.42871600408128       141.5992878223744        8.040569334518267        # O
108  108  1    192.5639372407686        141.5992878223744        8.040569334518267        # O
109  109  1    202.6985733314977        141.5992878223744        8.040569334518267        # O
110  110  1    212.83379456818503       141.5992878223744        8.040569334518267        # O
111  111  1    222.96843065891412       141.5992878223744        8.040569334518267        # O
112  112  1    233.10365189560144       141.5992878223744        8.040569334518267        # O
113  113  1    243.23828798633053       141.5992878223744        8.040569334518267        # O
114  114  1    253.37350922301783       141.5992878223744        8.040569334518267        # O
115  115  1    263.50814537108045       141.5992878223744        8.040569334518267        # O
116  116  1    10.135221236687318       141.5992878223744        8.040569334518267        # O
117  117  1    20.269857327416414       141.5992878223744        8.040569334518267        # O
118  118  1    30.405078564103736       141.5992878223744        8.040569334518267        # O
119  119  1    40.53971465483283        141.5992878223744        8.040569334518267        # O
120  120  1    50.67493589152015        141.5992878223744        8.040569334518267        # O
121  121  1    60.80957198224925        141.5992878223744        8.040569334518267        # O
122  122  1    70.94479321893657        141.5992878223744        8.040569334518267        # O
123  123  1    81.07942930966566        141.5992878223744        8.040569334518267        # O
124  124  1    91.21465054635298        141.5992878223744        8.040569334518267        # O
125  125  1    101.34928669441561       141.5992878223744        8.040569334518267        # O
126  126  1    152.02422258593577       147.4384337113658        8.040569334518267        # O
127  127  1    162.15885867666486       147.4384337113658        8.040569334518267        # O
128  128  1    172.2940799133522        147.4384337113658        8.040569334518267        # O
129  129  1    182.42871600408128       147.4384337113658        8.040569334518267        # O
130  130  1    192.5639372407686        147.4384337113658        8.040569334518267        # O
131  131  1    202.6985733314977        147.4384337113658        8.040569334518267        # O
132  132  1    212.83379456818503       147.4384337113658        8.040569334518267        # O
133  133  1    222.96843065891412       147.4384337113658        8.040569334518267        # O
134  134  1    233.10365189560144       147.4384337113658        8.040569334518267        # O
135  135  1    243.23828798633053       147.4384337113658        8.040569334518267        # O
136  136  1    253.37350922301783       147.4384337113658        8.040569334518267        # O
137  137  1    263.50814537108045       147.4384337113658        8.040569334518267        # O
138  138  1    10.135221236687318       147.4384337113658        8.040569334518267        # O
139  139  1    20.269857327416414       147.4384337113658        8.040569334518267        # O
140  140  1    30.405078564103736       147.4384337113658        8.040569334518267        # O
141  141  1    40.53971465483283        147.4384337113658        8.040569334518267        # O
142  142  1    50.67493589152015        147.4384337113658        8.040569334518267        # O
143  143  1    60.80957198224925        147.4384337113658        8.040569334518267        # O
144  144  1    70.94479321893657        147.4384337113658        8.040569334518267        # O
145  145  1    81.07942930966566        147.4384337113658        8.040569334518267        # O
146  146  1    91.21465054635298        147.4384337113658        8.040569334518267        # O
147  147  1    101.34928669441561       147.4384337113658        8.040569334518267        # O
148  148  1    111.48450793110293       147.4384337113658        8.040569334518267        # O
149  149  1    136.8216832752171        150.35800668452825       8.040569334518267        # O
150  150  1    146.95631936594623       150.35800668452825       8.040569334518267        # O
151  151  1    157.09154060263353       150.35800668452825       8.040569334518267        # O
152  152  1    167.22617669336265       150.35800668452825       8.040569334518267        # O
153  153  1    177.36139793004998       150.35800668452825       8.040569334518267        # O
154  154  1    187.4960340781126        150.35800668452825       8.040569334518267        # O
155  155  1    197.63125531479992       150.35800668452825       8.040569334518267        # O
156  156  1    207.765891405529         150.35800668452825       8.040569334518267        # O
157  157  1    217.90111264221633       150.35800668452825       8.040569334518267        # O
158  158  1    228.03574873294542       150.35800668452825       8.040569334518267        # O
159  159  1    238.17096996963275       150.35800668452825       8.040569334518267        # O
160  160  1    248.30560606036184       150.35800668452825       8.040569334518267        # O
161  161  1    258.4408272970491        150.35800668452825       8.040569334518267        # O
162  162  1    5.067318074031312        150.35800668452825       8.040569334518267        # O
163  163  1    15.20253931071863        150.35800668452825       8.040569334518267        # O
164  164  1    25.337175401447727       150.35800668452825       8.040569334518267        # O
165  165  1    35.472396638135045       150.35800668452825       8.040569334518267        # O
166  166  1    45.60703272886415        150.35800668452825       8.040569334518267        # O
167  167  1    55.74225396555146        150.35800668452825       8.040569334518267        # O
168  168  1    65.87689005628056        150.35800668452825       8.040569334518267        # O
169  169  1    76.01211129296789        150.35800668452825       8.040569334518267        # O
170  170  1    86.14674738369698        150.35800668452825       8.040569334518267        # O
171  171  1    96.2819686203843         150.35800668452825       8.040569334518267        # O
172  172  1    106.4166047111134        150.35800668452825       8.040569334518267        # O
173  173  1    116.55182594780072       150.35800668452825       8.040569334518267        # O
174  174  1    126.68646203852981       150.35800668452825       8.040569334518267        # O
175  175  1    136.8216832752171        156.19715257351965       8.040569334518267        # O
176  176  1    146.95631936594623       156.19715257351965       8.040569334518267        # O
177  177  1    157.09154060263353       156.19715257351965       8.040569334518267        # O
178  178  1    167.22617669336265       156.19715257351965       8.040569334518267        # O
179  179  1    177.36139793004998       156.19715257351965       8.040569334518267        # O
180  180  1    187.4960340781126        156.19715257351965       8.040569334518267        # O
181  181  1    197.63125531479992       156.19715257351965       8.040569334518267        # O
182  182  1    207.765891405529         156.19715257351965       8.040569334518267        # O
183  183  1    217.90111264221633       156.19715257351965       8.040569334518267        # O
184  184  1    228.03574873294542       156.19715257351965       8.040569334518267        # O
185  185  1    238.17096996963275       156.19715257351965       8.040569334518267        # O
186  186  1    248.30560606036184       156.19715257351965       8.040569334518267        # O
187  187  1    258.4408272970491        156.19715257351965       8.040569334518267        # O
188  188  1    5.067318074031312        156.19715257351965       8.040569334518267        # O
189  189  1    15.20253931071863        156.19715257351965       8.040569334518267        # O
190  190  1    25.337175401447727       156.19715257351965       8.040569334518267        # O
191  191  1    35.472396638135045       156.19715257351965       8.040569334518267        # O
192  192  1    45.60703272886415        156.19715257351965       8.040569334518267        # O
193  193  1    55.74225396555146        156.19715257351965       8.040569334518267        # O
194  194  1    65.87689005628056        156.19715257351965       8.040569334518267        # O
195  195  1    76.01211129296789        156.19715257351965       8.040569334518267        # O
196  196  1    86.14674738369698        156.19715257351965       8.040569334518267        # O
197  197  1    96.2819686203843         156.19715257351965       8.040569334518267        # O
198  198  1    106.4166047111134        156.19715257351965       8.040569334518267        # O
199  199  1    116.55182594780072       156.19715257351965       8.040569334518267        # O
200  200  1    126.68646203852981       156.19715257351965       8.040569334518267        # O
201  201  1    131.75436525851933       159.1167255466821        8.040569334518267        # O
202  202  1    141.88900134924845       159.1167255466821        8.040569334518267        # O
203  203  1    152.02422258593577       159.1167255466821        8.040569334518267        # O
204  204  1    162.15885867666486       159.1167255466821        8.040569334518267        # O
205  205  1    172.2940799133522        159.1167255466821        8.040569334518267        # O
206  206  1    182.42871600408128       159.1167255466821        8.040569334518267        # O
207  207  1    192.5639372407686        159.1167255466821        8.040569334518267        # O
208  208  1    202.6985733314977        159.1167255466821        8.040569334518267        # O
209  209  1    212.83379456818503       159.1167255466821        8.040569334518267        # O
210  210  1    222.96843065891412       159.1167255466821        8.040569334518267        # O
211  211  1    233.10365189560144       159.1167255466821        8.040569334518267        # O
212  212  1    243.23828798633053       159.1167255466821        8.040569334518267        # O
213  213  1    253.37350922301783       159.1167255466821        8.040569334518267        # O
214  214  1    263.50814537108045       159.1167255466821        8.040569334518267        # O
215  215  1    10.135221236687318       159.1167255466821        8.040569334518267        # O
216  216  1    20.269857327416414       159.1167255466821        8.040569334518267        # O
217  217  1    30.405078564103736       159.1167255466821        8.040569334518267        # O
218  218  1    40.53971465483283        159.1167255466821        8.040569334518267        # O
219  219  1    50.67493589152015        159.1167255466821        8.040569334518267        # O
220  220  1    60.80957198224925        159.1167255466821        8.040569334518267        # O
221  221  1    70.94479321893657        159.1167255466821        8.040569334518267        # O
222  222  1    81.07942930966566        159.1167255466821        8.040569334518267        # O
223  223  1    91.21465054635298        159.1167255466821        8.040569334518267        # O
224  224  1    101.34928669441561       159.1167255466821        8.040569334518267        # O
225  225  1    111.48450793110293       159.1167255466821        8.040569334518267        # O
226  226  1    121.61914402183203       159.1167255466821        8.040569334518267        # O
227  227  1    141.88900134924845       164.9558714356735        8.040569334518267        # O
228  228  1    152.02422258593577       164.9558714356735        8.040569334518267        # O
229  229  1    162.15885867666486       164.9558714356735        8.040569334518267        # O
230  230  1    172.2940799133522        164.9558714356735        8.040569334518267        # O
231  231  1    182.42871600408128       164.9558714356735        8.040569334518267        # O
232  232  1    192.5639372407686        164.9558714356735        8.040569334518267        # O
233  233  1    202.6985733314977        164.9558714356735        8.040569334518267        # O
234  234  1    212.83379456818503       164.9558714356735        8.040569334518267        # O
235  235  1    222.96843065891412       164.9558714356735        8.040569334518267        # O
236  236  1    233.10365189560144       164.9558714356735        8.040569334518267        # O
237  237  1    243.23828798633053       164.9558714356735        8.040569334518267        # O
238  238  1    253.37350922301783       164.9558714356735        8.040569334518267        # O
239  239  1    263.50814537108045       164.9558714356735        8.040569334518267        # O
240  240  1    10.135221236687318       164.9558714356735        8.040569334518267        # O
241  241  1    20.269857327416414       164.9558714356735        8.040569334518267        # O
242  242  1    30.405078564103736       164.9558714356735        8.040569334518267        # O
243  243  1    40.53971465483283        164.9558714356735        8.040569334518267        # O
244  244  1    50.67493589152015        164.9558714356735        8.040569334518267        # O
245  245  1    60.80957198224925        164.9558714356735        8.040569334518267        # O
246  246  1    70.94479321893657        164.9558714356735        8.040569334518267        # O
247  247  1    81.07942930966566        164.9558714356735        8.040569334518267        # O
248  248  1    91.21465054635298        164.9558714356735        8.040569334518267        # O
249  249  1    101.34928669441561       164.9558714356735        8.040569334518267        # O
250  250  1    111.48450793110293       164.9558714356735        8.040569334518267        # O
251  251  1    121.61914402183203       164.9558714356735        8.040569334518267        # O
252  252  1    131.75436525851933       164.9558714356735        8.040569334518267        # O
253  253  1    136.8216832752171        167.87544435150238       8.040569334518267        # O
254  254  1    146.95631936594623       167.87544435150238       8.040569334518267        # O
255  255  1    157.09154060263353       167.87544435150238       8.040569334518267        # O
256  256  1    167.22617669336265       167.87544435150238       8.040569334518267        # O
257  257  1    177.36139793004998       167.87544435150238       8.040569334518267        # O
258  258  1    187.4960340781126        167.87544435150238       8.040569334518267        # O
259  259  1    197.63125531479992       167.87544435150238       8.040569334518267        # O
260  260  1    207.765891405529         167.87544435150238       8.040569334518267        # O
261  261  1    217.90111264221633       167.87544435150238       8.040569334518267        # O
262  262  1    228.03574873294542       167.87544435150238       8.040569334518267        # O
263  263  1    238.17096996963275       167.87544435150238       8.040569334518267        # O
264  264  1    248.30560606036184       167.87544435150238       8.040569334518267        # O
265  265  1    258.4408272970491        167.87544435150238       8.040569334518267        # O
266  266  1    5.067318074031312        167.87544435150238       8.040569334518267        # O
267  267  1    15.20253931071863        167.87544435150238       8.040569334518267        # O
268  268  1    25.337175401447727       167.87544435150238       8.040569334518267        # O
269  269  1    35.472396638135045       167.87544435150238       8.040569334518267        # O
270  270  1    45.60703272886415        167.87544435150238       8.040569334518267        # O
271  271  1    55.74225396555146        167.87544435150238       8.040569334518267        # O
272  272  1    65.87689005628056        167.87544435150238       8.040569334518267        # O
273  273  1    76.01211129296789        167.87544435150238       8.040569334518267        # O
274  274  1    86.14674738369698        167.87544435150238       8.040569334518267        # O
275  275  1    96.2819686203843         167.87544435150238       8.040569334518267        # O
276  276  1    106.4166047111134        167.87544435150238       8.040569334518267        # O
277  277  1    116.55182594780072       167.87544435150238       8.040569334518267        # O
278  278  1    126.68646203852981       167.87544435150238       8.040569334518267        # O
279  279  1    136.8216832752171        173.71459024049378       8.040569334518267        # O
280  280  1    146.95631936594623       173.71459024049378       8.040569334518267        # O
281  281  1    157.09154060263353       173.71459024049378       8.040569334518267        # O
282  282  1    167.22617669336265       173.71459024049378       8.040569334518267        # O
283  283  1    177.36139793004998       173.71459024049378       8.040569334518267        # O
284  284  1    187.4960340781126        173.71459024049378       8.040569334518267        # O
285  285  1    197.63125531479992       173.71459024049378       8.040569334518267        # O
286  286  1    207.765891405529         173.71459024049378       8.040569334518267        # O
287  287  1    217.90111264221633       173.71459024049378       8.040569334518267        # O
288  288  1    228.03574873294542       173.71459024049378       8.040569334518267        # O
289  289  1    238.17096996963275       173.71459024049378       8.040569334518267        # O
290  290  1    248.30560606036184       173.71459024049378       8.040569334518267        # O
291  291  1    258.4408272970491        173.71459024049378       8.040569334518267        # O
292  292  1    5.067318074031312        173.71459024049378       8.040569334518267        # O
293  293  1    15.20253931071863        173.71459024049378       8.040569334518267        # O
294  294  1    25.337175401447727       173.71459024049378       8.040569334518267        # O
295  295  1    35.472396638135045       173.71459024049378       8.040569334518267        # O
296  296  1    45.60703272886415        173.71459024049378       8.040569334518267        # O
297  297  1    55.74225396555146        173.71459024049378       8.040569334518267        # O
298  298  1    65.87689005628056        173.71459024049378       8.040569334518267        # O
299  299  1    76.01211129296789        173.71459024049378       8.040569334518267        # O
300  300  1    86.14674738369698        173.71459024049378       8.040569334518267        # O
301  301  1    96.2819686203843         173.71459024049378       8.040569334518267        # O
302  302  1    106.4166047111134        173.71459024049378       8.040569334518267        # O
303  303  1    116.55182594780072       173.71459024049378       8.040569334518267        # O
304  304  1    126.68646203852981       173.71459024049378       8.040569334518267        # O
305  305  1    131.75436525851933       176.63416321365622       8.040569334518267        # O
306  306  1    141.88900134924845       176.63416321365622       8.040569334518267        # O
307  307  1    152.02422258593577       176.63416321365622       8.040569334518267        # O
308  308  1    162.15885867666486       176.63416321365622       8.040569334518267        # O
309  309  1    172.2940799133522        176.63416321365622       8.040569334518267        # O
310  310  1    182.42871600408128       176.63416321365622       8.040569334518267        # O
311  311  1    192.5639372407686        176.63416321365622       8.040569334518267        # O
312  312  1    202.6985733314977        176.63416321365622       8.040569334518267        # O
313  313  1    212.83379456818503       176.63416321365622       8.040569334518267        # O
314  314  1    222.96843065891412       176.63416321365622       8.040569334518267        # O