DATA FILE Produced from netmc results (cf David Morley)
1255 atoms
3012 bonds
0 angles
0 dihedrals
0 impropers
2 atom types
2 bond types
0 angle types
0 dihedral types
0 improper types
0.00000 159.30604755492425 xlo xhi
0.00000 137.9631984060208 ylo yhi

# Pair Coeffs
#
# 1  O
# 2  Si

# Bond Coeffs
# 
# 1  O-O
# 2  Si-O
# 3  O-O rep
# 4  Si-Si rep

 Masses

1 28.10000 # O 
2 32.01000 # Si

 Atoms # molecular

1    1    2    104.5444009203572        76.16718248258798        5.0                      # Si
2    2    2    114.50131168298634       76.16718248258798        5.0                      # Si
3    3    2    124.45764756235826       76.16718248258798        5.0                      # Si
4    4    2    134.4145582676539        76.16718248258798        5.0                      # Si
5    5    2    144.3708941470258        76.16718248258798        5.0                      # Si
6    6    2    154.3278048523214        76.16718248258798        5.0                      # Si
7    7    2    4.978167939685965        76.16718248258798        5.0                      # Si
8    8    2    14.935078644981578       76.16718248258798        5.0                      # Si
9    9    2    24.891414524353507       76.16718248258798        5.0                      # Si
10   10   2    34.84832528698264        76.16718248258798        5.0                      # Si
11   11   2    44.80466116635458        76.16718248258798        5.0                      # Si
12   12   2    54.76157187165018        76.16718248258798        5.0                      # Si
13   13   2    64.71790775102212        76.16718248258798        5.0                      # Si
14   14   2    99.56623303800477        79.0414157600189         5.0                      # Si
15   15   2    109.52314374330037       79.0414157600189         5.0                      # Si
16   16   2    119.4794796226723        79.0414157600189         5.0                      # Si
17   17   2    129.43639032796793       79.0414157600189         5.0                      # Si
18   18   2    139.39272620733985       79.0414157600189         5.0                      # Si
19   19   2    149.34963691263545       79.0414157600189         5.0                      # Si
20   20   2    159.3059727920074        79.0414157600189         5.0                      # Si
21   21   2    9.956910705295613        79.0414157600189         5.0                      # Si
22   22   2    19.91324658466754        79.0414157600189         5.0                      # Si
23   23   2    29.87015734729668        79.0414157600189         5.0                      # Si
24   24   2    39.82649322666861        79.0414157600189         5.0                      # Si
25   25   2    49.78340393196422        79.0414157600189         5.0                      # Si
26   26   2    59.73973981133615        79.0414157600189         5.0                      # Si
27   27   2    69.69665051663176        79.0414157600189         5.0                      # Si
28   28   2    99.56623303800477        84.78988237221425        5.0                      # Si
29   29   2    109.52314374330037       84.78988237221425        5.0                      # Si
30   30   2    119.4794796226723        84.78988237221425        5.0                      # Si
31   31   2    129.43639032796793       84.78988237221425        5.0                      # Si
32   32   2    139.39272620733985       84.78988237221425        5.0                      # Si
33   33   2    149.34963691263545       84.78988237221425        5.0                      # Si
34   34   2    159.3059727920074        84.78988237221425        5.0                      # Si
35   35   2    9.956910705295613        84.78988237221425        5.0                      # Si
36   36   2    19.91324658466754        84.78988237221425        5.0                      # Si
37   37   2    29.87015734729668        84.78988237221425        5.0                      # Si
38   38   2    39.82649322666861        84.78988237221425        5.0                      # Si
39   39   2    49.78340393196422        84.78988237221425        5.0                      # Si
40   40   2    59.73973981133615        84.78988237221425        5.0                      # Si
41   41   2    69.69665051663176        84.78988237221425        5.0                      # Si
42   42   2    84.63115433568966        87.66411564964515        5.0                      # Si
43   43   2    94.58806509831881        87.66411564964515        5.0                      # Si
44   44   2    104.5444009203572        87.66411564964515        5.0                      # Si
45   45   2    114.50131168298634       87.66411564964515        5.0                      # Si
46   46   2    124.45764756235826       87.66411564964515        5.0                      # Si
47   47   2    134.4145582676539        87.66411564964515        5.0                      # Si
48   48   2    144.3708941470258        87.66411564964515        5.0                      # Si
49   49   2    154.3278048523214        87.66411564964515        5.0                      # Si
50   50   2    4.978167939685965        87.66411564964515        5.0                      # Si
51   51   2    14.935078644981578       87.66411564964515        5.0                      # Si
52   52   2    24.891414524353507       87.66411564964515        5.0                      # Si
53   53   2    34.84832528698264        87.66411564964515        5.0                      # Si
54   54   2    44.80466116635458        87.66411564964515        5.0                      # Si
55   55   2    54.76157187165018        87.66411564964515        5.0                      # Si
56   56   2    64.71790775102212        87.66411564964515        5.0                      # Si
57   57   2    74.67481845631772        87.66411564964515        5.0                      # Si
58   58   2    84.63115433568966        93.4125822618405         5.0                      # Si
59   59   2    94.58806509831881        93.4125822618405         5.0                      # Si
60   60   2    104.5444009203572        93.4125822618405         5.0                      # Si
61   61   2    114.50131168298634       93.4125822618405         5.0                      # Si
62   62   2    124.45764756235826       93.4125822618405         5.0                      # Si
63   63   2    134.4145582676539        93.4125822618405         5.0                      # Si
64   64   2    144.3708941470258        93.4125822618405         5.0                      # Si
65   65   2    154.3278048523214        93.4125822618405         5.0                      # Si
66   66   2    4.978167939685965        93.4125822618405         5.0                      # Si
67   67   2    14.935078644981578       93.4125822618405         5.0                      # Si
68   68   2    24.891414524353507       93.4125822618405         5.0                      # Si
69   69   2    34.84832528698264        93.4125822618405         5.0                      # Si
70   70   2    44.80466116635458        93.4125822618405         5.0                      # Si
71   71   2    54.76157187165018        93.4125822618405         5.0                      # Si
72   72   2    64.71790775102212        93.4125822618405         5.0                      # Si
73   73   2    74.67481845631772        93.4125822618405         5.0                      # Si
74   74   2    79.6529863960037         96.28681553927142        5.0                      # Si
75   75   2    89.60989715863283        96.28681553927142        5.0                      # Si
76   76   2    99.56623303800477        96.28681553927142        5.0                      # Si
77   77   2    109.52314374330037       96.28681553927142        5.0                      # Si
78   78   2    119.4794796226723        96.28681553927142        5.0                      # Si
79   79   2    129.43639032796793       96.28681553927142        5.0                      # Si
80   80   2    139.39272620733985       96.28681553927142        5.0                      # Si
81   81   2    149.34963691263545       96.28681553927142        5.0                      # Si
82   82   2    159.3059727920074        96.28681553927142        5.0                      # Si
83   83   2    9.956910705295613        96.28681553927142        5.0                      # Si
84   84   2    19.91324658466754        96.28681553927142        5.0                      # Si
85   85   2    29.87015734729668        96.28681553927142        5.0                      # Si
86   86   2    39.82649322666861        96.28681553927142        5.0                      # Si
87   87   2    49.78340393196422        96.28681553927142        5.0                      # Si
88   88   2    59.73973981133615        96.28681553927142        5.0                      # Si
89   89   2    69.69665051663176        96.28681553927142        5.0                      # Si
90   90   2    89.60989715863283        102.03528215146676       5.0                      # Si
91   91   2    99.56623303800477        102.03528215146676       5.0                      # Si
92   92   2    109.52314374330037       102.03528215146676       5.0                      # Si
93   93   2    119.4794796226723        102.03528215146676       5.0                      # Si
94   94   2    129.43639032796793       102.03528215146676       5.0                      # Si
95   95   2    139.39272620733985       102.03528215146676       5.0                      # Si
96   96   2    149.34963691263545       102.03528215146676       5.0                      # Si
97   97   2    159.3059727920074        102.03528215146676       5.0                      # Si
98   98   2    9.956910705295613        102.03528215146676       5.0                      # Si
99   99   2    19.91324658466754        102.03528215146676       5.0                      # Si
100  100  2    29.87015734729668        102.03528215146676       5.0                      # Si
101  101  2    39.82649322666861        102.03528215146676       5.0                      # Si
102  102  2    49.78340393196422        102.03528215146676       5.0                      # Si
103  103  2    59.73973981133615        102.03528215146676       5.0                      # Si
104  104  2    69.69665051663176        102.03528215146676       5.0                      # Si
105  105  2    79.6529863960037         102.03528215146676       5.0                      # Si
106  106  2    84.63115433568966        104.90951542889768       5.0                      # Si
107  107  2    94.58806509831881        104.90951542889768       5.0                      # Si
108  108  2    104.5444009203572        104.90951542889768       5.0                      # Si
109  109  2    114.50131168298634       104.90951542889768       5.0                      # Si
110  110  2    124.45764756235826       104.90951542889768       5.0                      # Si
111  111  2    134.4145582676539        104.90951542889768       5.0                      # Si
112  112  2    144.3708941470258        104.90951542889768       5.0                      # Si
113  113  2    154.3278048523214        104.90951542889768       5.0                      # Si
114  114  2    4.978167939685965        104.90951542889768       5.0                      # Si
115  115  2    14.935078644981578       104.90951542889768       5.0                      # Si
116  116  2    24.891414524353507       104.90951542889768       5.0                      # Si
117  117  2    34.84832528698264        104.90951542889768       5.0                      # Si
118  118  2    44.80466116635458        104.90951542889768       5.0                      # Si
119  119  2    54.76157187165018        104.90951542889768       5.0                      # Si
120  120  2    64.71790775102212        104.90951542889768       5.0                      # Si
121  121  2    74.67481845631772        104.90951542889768       5.0                      # Si
122  122  2    84.63115433568966        110.65798204109304       5.0                      # Si
123  123  2    94.58806509831881        110.65798204109304       5.0                      # Si
124  124  2    104.5444009203572        110.65798204109304       5.0                      # Si
125  125  2    114.50131168298634       110.65798204109304       5.0                      # Si
126  126  2    124.45764756235826       110.65798204109304       5.0                      # Si
127  127  2    134.4145582676539        110.65798204109304       5.0                      # Si
128  128  2    144.3708941470258        110.65798204109304       5.0                      # Si
129  129  2    154.3278048523214        110.65798204109304       5.0                      # Si
130  130  2    4.978167939685965        110.65798204109304       5.0                      # Si
131  131  2    14.935078644981578       110.65798204109304       5.0                      # Si
132  132  2    24.891414524353507       110.65798204109304       5.0                      # Si
133  133  2    34.84832528698264        110.65798204109304       5.0                      # Si
134  134  2    44.80466116635458        110.65798204109304       5.0                      # Si
135  135  2    54.76157187165018        110.65798204109304       5.0                      # Si
136  136  2    64.71790775102212        110.65798204109304       5.0                      # Si
137  137  2    74.67481845631772        110.65798204109304       5.0                      # Si
138  138  2    79.6529863960037         113.53221537585746       5.0                      # Si
139  139  2    89.60989715863283        113.53221537585746       5.0                      # Si
140  140  2    99.56623303800477        113.53221537585746       5.0                      # Si
141  141  2    109.52314374330037       113.53221537585746       5.0                      # Si
142  142  2    119.4794796226723        113.53221537585746       5.0                      # Si
143  143  2    129.43639032796793       113.53221537585746       5.0                      # Si
144  144  2    139.39272620733985       113.53221537585746       5.0                      # Si
145  145  2    149.34963691263545       113.53221537585746       5.0                      # Si
146  146  2    159.3059727920074        113.53221537585746       5.0                      # Si
147  147  2    9.956910705295613        113.53221537585746       5.0                      # Si
148  148  2    19.91324658466754        113.53221537585746       5.0                      # Si
149  149  2    29.87015734729668        113.53221537585746       5.0                      # Si
150  150  2    39.82649322666861        113.53221537585746       5.0                      # Si
151  151  2    49.78340393196422        113.53221537585746       5.0                      # Si
152  152  2    59.73973981133615        113.53221537585746       5.0                      # Si
153  153  2    69.69665051663176        113.53221537585746       5.0                      # Si
154  154  2    89.60989715863283        119.2806819307193        5.0                      # Si
155  155  2    99.56623303800477        119.2806819307193        5.0                      # Si
156  156  2    109.52314374330037       119.2806819307193        5.0                      # Si
157  157  2    119.4794796226723        119.2806819307193        5.0                      # Si
158  158  2    129.43639032796793       119.2806819307193        5.0                      # Si
159  159  2    139.39272620733985       119.2806819307193        5.0                      # Si
160  160  2    149.34963691263545       119.2806819307193        5.0                      # Si
161  161  2    159.3059727920074        119.2806819307193        5.0                      # Si
162  162  2    9.956910705295613        119.2806819307193        5.0                      # Si
163  163  2    19.91324658466754        119.2806819307193        5.0                      # Si
164  164  2    29.87015734729668        119.2806819307193        5.0                      # Si
165  165  2    39.82649322666861        119.2806819307193        5.0                      # Si
166  166  2    49.78340393196422        119.2806819307193        5.0                      # Si
167  167  2    59.73973981133615        119.2806819307193        5.0                      # Si
168  168  2    69.69665051663176        119.2806819307193        5.0                      # Si
169  169  2    79.6529863960037         119.2806819307193        5.0                      # Si
170  170  2    84.63115433568966        122.15491526548374       5.0                      # Si
171  171  2    94.58806509831881        122.15491526548374       5.0                      # Si
172  172  2    104.5444009203572        122.15491526548374       5.0                      # Si
173  173  2    114.50131168298634       122.15491526548374       5.0                      # Si
174  174  2    124.45764756235826       122.15491526548374       5.0                      # Si
175  175  2    134.4145582676539        122.15491526548374       5.0                      # Si
176  176  2    144.3708941470258        122.15491526548374       5.0                      # Si
177  177  2    154.3278048523214        122.15491526548374       5.0                      # Si
178  178  2    4.978167939685965        122.15491526548374       5.0                      # Si
179  179  2    14.935078644981578       122.15491526548374       5.0                      # Si
180  180  2    24.891414524353507       122.15491526548374       5.0                      # Si
181  181  2    34.84832528698264        122.15491526548374       5.0                      # Si
182  182  2    44.80466116635458        122.15491526548374       5.0                      # Si
183  183  2    54.76157187165018        122.15491526548374       5.0                      # Si
184  184  2    64.71790775102212        122.15491526548374       5.0                      # Si
185  185  2    74.67481845631772        122.15491526548374       5.0                      # Si
186  186  2    84.63115433568966        127.9033818776791        5.0                      # Si
187  187  2    94.58806509831881        127.9033818776791        5.0                      # Si
188  188  2    104.5444009203572        127.9033818776791        5.0                      # Si
189  189  2    114.50131168298634       127.9033818776791        5.0                      # Si
190  190  2    124.45764756235826       127.9033818776791        5.0                      # Si
191  191  2    134.4145582676539        127.9033818776791        5.0                      # Si
192  192  2    144.3708941470258        127.9033818776791        5.0                      # Si
193  193  2    154.3278048523214        127.9033818776791        5.0                      # Si
194  194  2    4.978167939685965        127.9033818776791        5.0                      # Si
195  195  2    14.935078644981578       127.9033818776791        5.0                      # Si
196  196  2    24.891414524353507       127.9033818776791        5.0                      # Si
197  197  2    34.84832528698264        127.9033818776791        5.0                      # Si
198  198  2    44.80466116635458        127.9033818776791        5.0                      # Si
199  199  2    54.76157187165018        127.9033818776791        5.0                      # Si
200  200  2    64.71790775102212        127.9033818776791        5.0                      # Si
201  201  2    74.67481845631772        127.9033818776791        5.0                      # Si
202  202  2    79.6529863960037         130.77761515511          5.0                      # Si
203  203  2    89.60989715863283        130.77761515511          5.0                      # Si
204  204  2    99.56623303800477        130.77761515511          5.0                      # Si
205  205  2    109.52314374330037       130.77761515511          5.0                      # Si
206  206  2    119.4794796226723        130.77761515511          5.0                      # Si
207  207  2    129.43639032796793       130.77761515511          5.0                      # Si
208  208  2    139.39272620733985       130.77761515511          5.0                      # Si
209  209  2    149.34963691263545       130.77761515511          5.0                      # Si
210  210  2    159.3059727920074        130.77761515511          5.0                      # Si
211  211  2    9.956910705295613        130.77761515511          5.0                      # Si
212  212  2    19.91324658466754        130.77761515511          5.0                      # Si
213  213  2    29.87015734729668        130.77761515511          5.0                      # Si
214  214  2    39.82649322666861        130.77761515511          5.0                      # Si
215  215  2    49.78340393196422        130.77761515511          5.0                      # Si
216  216  2    59.73973981133615        130.77761515511          5.0                      # Si
217  217  2    69.69665051663176        130.77761515511          5.0                      # Si
218  218  2    89.60989715863283        136.52608176730536       5.0                      # Si
219  219  2    99.56623303800477        136.52608176730536       5.0                      # Si
220  220  2    109.52314374330037       136.52608176730536       5.0                      # Si
221  221  2    119.4794796226723        136.52608176730536       5.0                      # Si
222  222  2    129.43639032796793       136.52608176730536       5.0                      # Si
223  223  2    139.39272620733985       136.52608176730536       5.0                      # Si
224  224  2    149.34963691263545       136.52608176730536       5.0                      # Si
225  225  2    159.3059727920074        136.52608176730536       5.0                      # Si
226  226  2    9.956910705295613        136.52608176730536       5.0                      # Si
227  227  2    19.91324658466754        136.52608176730536       5.0                      # Si
228  228  2    29.87015734729668        136.52608176730536       5.0                      # Si
229  229  2    39.82649322666861        136.52608176730536       5.0                      # Si
230  230  2    49.78340393196422        136.52608176730536       5.0                      # Si
231  231  2    59.73973981133615        136.52608176730536       5.0                      # Si
232  232  2    69.69665051663176        136.52608176730536       5.0                      # Si
233  233  2    79.6529863960037         136.52608176730536       5.0                      # Si
234  234  2    84.63115433568966        1.4371166387154566       5.0                      # Si
235  235  2    94.58806509831881        1.4371166387154566       5.0                      # Si
236  236  2    104.5444009203572        1.4371166387154566       5.0                      # Si
237  237  2    114.50131168298634       1.4371166387154566       5.0                      # Si
238  238  2    124.45764756235826       1.4371166387154566       5.0                      # Si
239  239  2    134.4145582676539        1.4371166387154566       5.0                      # Si
240  240  2    144.3708941470258        1.4371166387154566       5.0                      # Si
241  241  2    154.3278048523214        1.4371166387154566       5.0                      # Si
242  242  2    4.978167939685965        1.4371166387154566       5.0                      # Si
243  243  2    14.935078644981578       1.4371166387154566       5.0                      # Si
244  244  2    24.891414524353507       1.4371166387154566       5.0                      # Si
245  245  2    34.84832528698264        1.4371166387154566       5.0                      # Si
246  246  2    44.80466116635458        1.4371166387154566       5.0                      # Si
247  247  2    54.76157187165018        1.4371166387154566       5.0                      # Si
248  248  2    64.71790775102212        1.4371166387154566       5.0                      # Si
249  249  2    74.67481845631772        1.4371166387154566       5.0                      # Si
250  250  2    84.63115433568966        7.185583250910809        5.0                      # Si
251  251  2    94.58806509831881        7.185583250910809        5.0                      # Si
252  252  2    104.5444009203572        7.185583250910809        5.0                      # Si
253  253  2    114.50131168298634       7.185583250910809        5.0                      # Si
254  254  2    124.45764756235826       7.185583250910809        5.0                      # Si
255  255  2    134.4145582676539        7.185583250910809        5.0                      # Si
256  256  2    144.3708941470258        7.185583250910809        5.0                      # Si
257  257  2    154.3278048523214        7.185583250910809        5.0                      # Si
258  258  2    4.978167939685965        7.185583250910809        5.0                      # Si
259  259  2    14.935078644981578       7.185583250910809        5.0                      # Si
260  260  2    24.891414524353507       7.185583250910809        5.0                      # Si
261  261  2    34.84832528698264        7.185583250910809        5.0                      # Si
262  262  2    44.80466116635458        7.185583250910809        5.0                      # Si
263  263  2    54.76157187165018        7.185583250910809        5.0                      # Si
264  264  2    64.71790775102212        7.185583250910809        5.0                      # Si
265  265  2    74.67481845631772        7.185583250910809        5.0                      # Si
266  266  2    79.6529863960037         10.05981652834172        5.0                      # Si
267  267  2    89.60989715863283        10.05981652834172        5.0                      # Si
268  268  2    99.56623303800477        10.05981652834172        5.0                      # Si
269  269  2    109.52314374330037       10.05981652834172        5.0                      # Si
270  270  2    119.4794796226723        10.05981652834172        5.0                      # Si
271  271  2    129.43639032796793       10.05981652834172        5.0                      # Si
272  272  2    139.39272620733985       10.05981652834172        5.0                      # Si
273  273  2    149.34963691263545       10.05981652834172        5.0                      # Si
274  274  2    159.3059727920074        10.05981652834172        5.0                      # Si
275  275  2    9.956910705295613        10.05981652834172        5.0                      # Si
276  276  2    19.91324658466754        10.05981652834172        5.0                      # Si
277  277  2    29.87015734729668        10.05981652834172        5.0                      # Si
278  278  2    39.82649322666861        10.05981652834172        5.0                      # Si
279  279  2    49.78340393196422        10.05981652834172        5.0                      # Si
280  280  2    59.73973981133615        10.05981652834172        5.0                      # Si
281  281  2    69.69665051663176        10.05981652834172        5.0                      # Si
282  282  2    89.60989715863283        15.808283140537073       5.0                      # Si
283  283  2    99.56623303800477        15.808283140537073       5.0                      # Si
284  284  2    109.52314374330037       15.808283140537073       5.0                      # Si
285  285  2    119.4794796226723        15.808283140537073       5.0                      # Si
286  286  2    129.43639032796793       15.808283140537073       5.0                      # Si
287  287  2    139.39272620733985       15.808283140537073       5.0                      # Si
288  288  2    149.34963691263545       15.808283140537073       5.0                      # Si
289  289  2    159.3059727920074        15.808283140537073       5.0                      # Si
290  290  2    9.956910705295613        15.808283140537073       5.0                      # Si
291  291  2    19.91324658466754        15.808283140537073       5.0                      # Si
292  292  2    29.87015734729668        15.808283140537073       5.0                      # Si
293  293  2    39.82649322666861        15.808283140537073       5.0                      # Si
294  294  2    49.78340393196422        15.808283140537073       5.0                      # Si
295  295  2    59.73973981133615        15.808283140537073       5.0                      # Si
296  296  2    69.69665051663176        15.808283140537073       5.0                      # Si
297  297  2    79.6529863960037         15.808283140537073       5.0                      # Si
298  298  2    84.63115433568966        18.68251647530151        5.0                      # Si
299  299  2    94.58806509831881        18.68251647530151        5.0                      # Si
300  300  2    104.5444009203572        18.68251647530151        5.0                      # Si
301  301  2    114.50131168298634       18.68251647530151        5.0                      # Si
302  302  2    124.45764756235826       18.68251647530151        5.0                      # Si
303  303  2    134.4145582676539        18.68251647530151        5.0                      # Si
304  304  2    144.3708941470258        18.68251647530151        5.0                      # Si
305  305  2    154.3278048523214        18.68251647530151        5.0                      # Si
306  306  2    4.978167939685965        18.68251647530151        5.0                      # Si
307  307  2    14.935078644981578       18.68251647530151        5.0                      # Si
308  308  2    24.891414524353507       18.68251647530151        5.0                      # Si
309  309  2    34.84832528698264        18.68251647530151        5.0                      # Si
310  310  2    44.80466116635458        18.68251647530151        5.0                      # Si
311  311  2    54.76157187165018        18.68251647530151        5.0                      # Si