DATA FILE Produced from netmc results (cf David Morley)
3012 atoms
10040 bonds
0 angles
0 dihedrals
0 impropers
2 atom types
0 bond types
2 bond types
0 angle types
0 dihedral types
0 improper types
0.00000 159.30604755492425 xlo xhi
0.00000 137.9631984060208 ylo yhi
0.0000 200.0000 zlo zhi

# Pair Coeffs
#
# 1  O
# 2  Si

# Bond Coeffs
# 
# 1  O-O
# 2  Si-O
# 3  O-O rep
# 4  Si-Si rep

 Masses

1 28.10000 # O 
2 32.01000 # Si

 Atoms # molecular

1    1    1    104.5444009203572        76.16718248258798        8.040569334518267        # O
2    2    1    114.50131168298634       76.16718248258798        8.040569334518267        # O
3    3    1    124.45764756235826       76.16718248258798        8.040569334518267        # O
4    4    1    134.4145582676539        76.16718248258798        8.040569334518267        # O
5    5    1    144.3708941470258        76.16718248258798        8.040569334518267        # O
6    6    1    154.3278048523214        76.16718248258798        8.040569334518267        # O
7    7    1    4.978167939685965        76.16718248258798        8.040569334518267        # O
8    8    1    14.935078644981578       76.16718248258798        8.040569334518267        # O
9    9    1    24.891414524353507       76.16718248258798        8.040569334518267        # O
10   10   1    34.84832528698264        76.16718248258798        8.040569334518267        # O
11   11   1    44.80466116635458        76.16718248258798        8.040569334518267        # O
12   12   1    54.76157187165018        76.16718248258798        8.040569334518267        # O
13   13   1    64.71790775102212        76.16718248258798        8.040569334518267        # O
14   14   1    99.56623303800477        79.0414157600189         8.040569334518267        # O
15   15   1    109.52314374330037       79.0414157600189         8.040569334518267        # O
16   16   1    119.4794796226723        79.0414157600189         8.040569334518267        # O
17   17   1    129.43639032796793       79.0414157600189         8.040569334518267        # O
18   18   1    139.39272620733985       79.0414157600189         8.040569334518267        # O
19   19   1    149.34963691263545       79.0414157600189         8.040569334518267        # O
20   20   1    159.3059727920074        79.0414157600189         8.040569334518267        # O
21   21   1    9.956910705295613        79.0414157600189         8.040569334518267        # O
22   22   1    19.91324658466754        79.0414157600189         8.040569334518267        # O
23   23   1    29.87015734729668        79.0414157600189         8.040569334518267        # O
24   24   1    39.82649322666861        79.0414157600189         8.040569334518267        # O
25   25   1    49.78340393196422        79.0414157600189         8.040569334518267        # O
26   26   1    59.73973981133615        79.0414157600189         8.040569334518267        # O
27   27   1    69.69665051663176        79.0414157600189         8.040569334518267        # O
28   28   1    99.56623303800477        84.78988237221425        8.040569334518267        # O
29   29   1    109.52314374330037       84.78988237221425        8.040569334518267        # O
30   30   1    119.4794796226723        84.78988237221425        8.040569334518267        # O
31   31   1    129.43639032796793       84.78988237221425        8.040569334518267        # O
32   32   1    139.39272620733985       84.78988237221425        8.040569334518267        # O
33   33   1    149.34963691263545       84.78988237221425        8.040569334518267        # O
34   34   1    159.3059727920074        84.78988237221425        8.040569334518267        # O
35   35   1    9.956910705295613        84.78988237221425        8.040569334518267        # O
36   36   1    19.91324658466754        84.78988237221425        8.040569334518267        # O
37   37   1    29.87015734729668        84.78988237221425        8.040569334518267        # O
38   38   1    39.82649322666861        84.78988237221425        8.040569334518267        # O
39   39   1    49.78340393196422        84.78988237221425        8.040569334518267        # O
40   40   1    59.73973981133615        84.78988237221425        8.040569334518267        # O
41   41   1    69.69665051663176        84.78988237221425        8.040569334518267        # O
42   42   1    84.63115433568966        87.66411564964515        8.040569334518267        # O
43   43   1    94.58806509831881        87.66411564964515        8.040569334518267        # O
44   44   1    104.5444009203572        87.66411564964515        8.040569334518267        # O
45   45   1    114.50131168298634       87.66411564964515        8.040569334518267        # O
46   46   1    124.45764756235826       87.66411564964515        8.040569334518267        # O
47   47   1    134.4145582676539        87.66411564964515        8.040569334518267        # O
48   48   1    144.3708941470258        87.66411564964515        8.040569334518267        # O
49   49   1    154.3278048523214        87.66411564964515        8.040569334518267        # O
50   50   1    4.978167939685965        87.66411564964515        8.040569334518267        # O
51   51   1    14.935078644981578       87.66411564964515        8.040569334518267        # O
52   52   1    24.891414524353507       87.66411564964515        8.040569334518267        # O
53   53   1    34.84832528698264        87.66411564964515        8.040569334518267        # O
54   54   1    44.80466116635458        87.66411564964515        8.040569334518267        # O
55   55   1    54.76157187165018        87.66411564964515        8.040569334518267        # O
56   56   1    64.71790775102212        87.66411564964515        8.040569334518267        # O
57   57   1    74.67481845631772        87.66411564964515        8.040569334518267        # O
58   58   1    84.63115433568966        93.4125822618405         8.040569334518267        # O
59   59   1    94.58806509831881        93.4125822618405         8.040569334518267        # O
60   60   1    104.5444009203572        93.4125822618405         8.040569334518267        # O
61   61   1    114.50131168298634       93.4125822618405         8.040569334518267        # O
62   62   1    124.45764756235826       93.4125822618405         8.040569334518267        # O
63   63   1    134.4145582676539        93.4125822618405         8.040569334518267        # O
64   64   1    144.3708941470258        93.4125822618405         8.040569334518267        # O
65   65   1    154.3278048523214        93.4125822618405         8.040569334518267        # O
66   66   1    4.978167939685965        93.4125822618405         8.040569334518267        # O
67   67   1    14.935078644981578       93.4125822618405         8.040569334518267        # O
68   68   1    24.891414524353507       93.4125822618405         8.040569334518267        # O
69   69   1    34.84832528698264        93.4125822618405         8.040569334518267        # O
70   70   1    44.80466116635458        93.4125822618405         8.040569334518267        # O
71   71   1    54.76157187165018        93.4125822618405         8.040569334518267        # O
72   72   1    64.71790775102212        93.4125822618405         8.040569334518267        # O
73   73   1    74.67481845631772        93.4125822618405         8.040569334518267        # O
74   74   1    79.6529863960037         96.28681553927142        8.040569334518267        # O
75   75   1    89.60989715863283        96.28681553927142        8.040569334518267        # O
76   76   1    99.56623303800477        96.28681553927142        8.040569334518267        # O
77   77   1    109.52314374330037       96.28681553927142        8.040569334518267        # O
78   78   1    119.4794796226723        96.28681553927142        8.040569334518267        # O
79   79   1    129.43639032796793       96.28681553927142        8.040569334518267        # O
80   80   1    139.39272620733985       96.28681553927142        8.040569334518267        # O
81   81   1    149.34963691263545       96.28681553927142        8.040569334518267        # O
82   82   1    159.3059727920074        96.28681553927142        8.040569334518267        # O
83   83   1    9.956910705295613        96.28681553927142        8.040569334518267        # O
84   84   1    19.91324658466754        96.28681553927142        8.040569334518267        # O
85   85   1    29.87015734729668        96.28681553927142        8.040569334518267        # O
86   86   1    39.82649322666861        96.28681553927142        8.040569334518267        # O
87   87   1    49.78340393196422        96.28681553927142        8.040569334518267        # O
88   88   1    59.73973981133615        96.28681553927142        8.040569334518267        # O
89   89   1    69.69665051663176        96.28681553927142        8.040569334518267        # O
90   90   1    89.60989715863283        102.03528215146676       8.040569334518267        # O
91   91   1    99.56623303800477        102.03528215146676       8.040569334518267        # O
92   92   1    109.52314374330037       102.03528215146676       8.040569334518267        # O
93   93   1    119.4794796226723        102.03528215146676       8.040569334518267        # O
94   94   1    129.43639032796793       102.03528215146676       8.040569334518267        # O
95   95   1    139.39272620733985       102.03528215146676       8.040569334518267        # O
96   96   1    149.34963691263545       102.03528215146676       8.040569334518267        # O
97   97   1    159.3059727920074        102.03528215146676       8.040569334518267        # O
98   98   1    9.956910705295613        102.03528215146676       8.040569334518267        # O
99   99   1    19.91324658466754        102.03528215146676       8.040569334518267        # O
100  100  1    29.87015734729668        102.03528215146676       8.040569334518267        # O
101  101  1    39.82649322666861        102.03528215146676       8.040569334518267        # O
102  102  1    49.78340393196422        102.03528215146676       8.040569334518267        # O
103  103  1    59.73973981133615        102.03528215146676       8.040569334518267        # O
104  104  1    69.69665051663176        102.03528215146676       8.040569334518267        # O
105  105  1    79.6529863960037         102.03528215146676       8.040569334518267        # O
106  106  1    84.63115433568966        104.90951542889768       8.040569334518267        # O
107  107  1    94.58806509831881        104.90951542889768       8.040569334518267        # O
108  108  1    104.5444009203572        104.90951542889768       8.040569334518267        # O
109  109  1    114.50131168298634       104.90951542889768       8.040569334518267        # O
110  110  1    124.45764756235826       104.90951542889768       8.040569334518267        # O
111  111  1    134.4145582676539        104.90951542889768       8.040569334518267        # O
112  112  1    144.3708941470258        104.90951542889768       8.040569334518267        # O
113  113  1    154.3278048523214        104.90951542889768       8.040569334518267        # O
114  114  1    4.978167939685965        104.90951542889768       8.040569334518267        # O
115  115  1    14.935078644981578       104.90951542889768       8.040569334518267        # O
116  116  1    24.891414524353507       104.90951542889768       8.040569334518267        # O
117  117  1    34.84832528698264        104.90951542889768       8.040569334518267        # O
118  118  1    44.80466116635458        104.90951542889768       8.040569334518267        # O
119  119  1    54.76157187165018        104.90951542889768       8.040569334518267        # O
120  120  1    64.71790775102212        104.90951542889768       8.040569334518267        # O
121  121  1    74.67481845631772        104.90951542889768       8.040569334518267        # O
122  122  1    84.63115433568966        110.65798204109304       8.040569334518267        # O
123  123  1    94.58806509831881        110.65798204109304       8.040569334518267        # O
124  124  1    104.5444009203572        110.65798204109304       8.040569334518267        # O
125  125  1    114.50131168298634       110.65798204109304       8.040569334518267        # O
126  126  1    124.45764756235826       110.65798204109304       8.040569334518267        # O
127  127  1    134.4145582676539        110.65798204109304       8.040569334518267        # O
128  128  1    144.3708941470258        110.65798204109304       8.040569334518267        # O
129  129  1    154.3278048523214        110.65798204109304       8.040569334518267        # O
130  130  1    4.978167939685965        110.65798204109304       8.040569334518267        # O
131  131  1    14.935078644981578       110.65798204109304       8.040569334518267        # O
132  132  1    24.891414524353507       110.65798204109304       8.040569334518267        # O
133  133  1    34.84832528698264        110.65798204109304       8.040569334518267        # O
134  134  1    44.80466116635458        110.65798204109304       8.040569334518267        # O
135  135  1    54.76157187165018        110.65798204109304       8.040569334518267        # O
136  136  1    64.71790775102212        110.65798204109304       8.040569334518267        # O
137  137  1    74.67481845631772        110.65798204109304       8.040569334518267        # O
138  138  1    79.6529863960037         113.53221537585746       8.040569334518267        # O
139  139  1    89.60989715863283        113.53221537585746       8.040569334518267        # O
140  140  1    99.56623303800477        113.53221537585746       8.040569334518267        # O
141  141  1    109.52314374330037       113.53221537585746       8.040569334518267        # O
142  142  1    119.4794796226723        113.53221537585746       8.040569334518267        # O
143  143  1    129.43639032796793       113.53221537585746       8.040569334518267        # O
144  144  1    139.39272620733985       113.53221537585746       8.040569334518267        # O
145  145  1    149.34963691263545       113.53221537585746       8.040569334518267        # O
146  146  1    159.3059727920074        113.53221537585746       8.040569334518267        # O
147  147  1    9.956910705295613        113.53221537585746       8.040569334518267        # O
148  148  1    19.91324658466754        113.53221537585746       8.040569334518267        # O
149  149  1    29.87015734729668        113.53221537585746       8.040569334518267        # O
150  150  1    39.82649322666861        113.53221537585746       8.040569334518267        # O
151  151  1    49.78340393196422        113.53221537585746       8.040569334518267        # O
152  152  1    59.73973981133615        113.53221537585746       8.040569334518267        # O
153  153  1    69.69665051663176        113.53221537585746       8.040569334518267        # O
154  154  1    89.60989715863283        119.2806819307193        8.040569334518267        # O
155  155  1    99.56623303800477        119.2806819307193        8.040569334518267        # O
156  156  1    109.52314374330037       119.2806819307193        8.040569334518267        # O
157  157  1    119.4794796226723        119.2806819307193        8.040569334518267        # O
158  158  1    129.43639032796793       119.2806819307193        8.040569334518267        # O
159  159  1    139.39272620733985       119.2806819307193        8.040569334518267        # O
160  160  1    149.34963691263545       119.2806819307193        8.040569334518267        # O
161  161  1    159.3059727920074        119.2806819307193        8.040569334518267        # O
162  162  1    9.956910705295613        119.2806819307193        8.040569334518267        # O
163  163  1    19.91324658466754        119.2806819307193        8.040569334518267        # O
164  164  1    29.87015734729668        119.2806819307193        8.040569334518267        # O
165  165  1    39.82649322666861        119.2806819307193        8.040569334518267        # O
166  166  1    49.78340393196422        119.2806819307193        8.040569334518267        # O
167  167  1    59.73973981133615        119.2806819307193        8.040569334518267        # O
168  168  1    69.69665051663176        119.2806819307193        8.040569334518267        # O
169  169  1    79.6529863960037         119.2806819307193        8.040569334518267        # O
170  170  1    84.63115433568966        122.15491526548374       8.040569334518267        # O
171  171  1    94.58806509831881        122.15491526548374       8.040569334518267        # O
172  172  1    104.5444009203572        122.15491526548374       8.040569334518267        # O
173  173  1    114.50131168298634       122.15491526548374       8.040569334518267        # O
174  174  1    124.45764756235826       122.15491526548374       8.040569334518267        # O
175  175  1    134.4145582676539        122.15491526548374       8.040569334518267        # O
176  176  1    144.3708941470258        122.15491526548374       8.040569334518267        # O
177  177  1    154.3278048523214        122.15491526548374       8.040569334518267        # O
178  178  1    4.978167939685965        122.15491526548374       8.040569334518267        # O
179  179  1    14.935078644981578       122.15491526548374       8.040569334518267        # O
180  180  1    24.891414524353507       122.15491526548374       8.040569334518267        # O
181  181  1    34.84832528698264        122.15491526548374       8.040569334518267        # O
182  182  1    44.80466116635458        122.15491526548374       8.040569334518267        # O
183  183  1    54.76157187165018        122.15491526548374       8.040569334518267        # O
184  184  1    64.71790775102212        122.15491526548374       8.040569334518267        # O
185  185  1    74.67481845631772        122.15491526548374       8.040569334518267        # O
186  186  1    84.63115433568966        127.9033818776791        8.040569334518267        # O
187  187  1    94.58806509831881        127.9033818776791        8.040569334518267        # O
188  188  1    104.5444009203572        127.9033818776791        8.040569334518267        # O
189  189  1    114.50131168298634       127.9033818776791        8.040569334518267        # O
190  190  1    124.45764756235826       127.9033818776791        8.040569334518267        # O
191  191  1    134.4145582676539        127.9033818776791        8.040569334518267        # O
192  192  1    144.3708941470258        127.9033818776791        8.040569334518267        # O
193  193  1    154.3278048523214        127.9033818776791        8.040569334518267        # O
194  194  1    4.978167939685965        127.9033818776791        8.040569334518267        # O
195  195  1    14.935078644981578       127.9033818776791        8.040569334518267        # O
196  196  1    24.891414524353507       127.9033818776791        8.040569334518267        # O
197  197  1    34.84832528698264        127.9033818776791        8.040569334518267        # O
198  198  1    44.80466116635458        127.9033818776791        8.040569334518267        # O
199  199  1    54.76157187165018        127.9033818776791        8.040569334518267        # O
200  200  1    64.71790775102212        127.9033818776791        8.040569334518267        # O
201  201  1    74.67481845631772        127.9033818776791        8.040569334518267        # O
202  202  1    79.6529863960037         130.77761515511          8.040569334518267        # O
203  203  1    89.60989715863283        130.77761515511          8.040569334518267        # O
204  204  1    99.56623303800477        130.77761515511          8.040569334518267        # O
205  205  1    109.52314374330037       130.77761515511          8.040569334518267        # O
206  206  1    119.4794796226723        130.77761515511          8.040569334518267        # O
207  207  1    129.43639032796793       130.77761515511          8.040569334518267        # O
208  208  1    139.39272620733985       130.77761515511          8.040569334518267        # O
209  209  1    149.34963691263545       130.77761515511          8.040569334518267        # O
210  210  1    159.3059727920074        130.77761515511          8.040569334518267        # O
211  211  1    9.956910705295613        130.77761515511          8.040569334518267        # O
212  212  1    19.91324658466754        130.77761515511          8.040569334518267        # O
213  213  1    29.87015734729668        130.77761515511          8.040569334518267        # O
214  214  1    39.82649322666861        130.77761515511          8.040569334518267        # O
215  215  1    49.78340393196422        130.77761515511          8.040569334518267        # O
216  216  1    59.73973981133615        130.77761515511          8.040569334518267        # O
217  217  1    69.69665051663176        130.77761515511          8.040569334518267        # O
218  218  1    89.60989715863283        136.52608176730536       8.040569334518267        # O
219  219  1    99.56623303800477        136.52608176730536       8.040569334518267        # O
220  220  1    109.52314374330037       136.52608176730536       8.040569334518267        # O
221  221  1    119.4794796226723        136.52608176730536       8.040569334518267        # O
222  222  1    129.43639032796793       136.52608176730536       8.040569334518267        # O
223  223  1    139.39272620733985       136.52608176730536       8.040569334518267        # O
224  224  1    149.34963691263545       136.52608176730536       8.040569334518267        # O
225  225  1    159.3059727920074        136.52608176730536       8.040569334518267        # O
226  226  1    9.956910705295613        136.52608176730536       8.040569334518267        # O
227  227  1    19.91324658466754        136.52608176730536       8.040569334518267        # O
228  228  1    29.87015734729668        136.52608176730536       8.040569334518267        # O
229  229  1    39.82649322666861        136.52608176730536       8.040569334518267        # O
230  230  1    49.78340393196422        136.52608176730536       8.040569334518267        # O
231  231  1    59.73973981133615        136.52608176730536       8.040569334518267        # O
232  232  1    69.69665051663176        136.52608176730536       8.040569334518267        # O
233  233  1    79.6529863960037         136.52608176730536       8.040569334518267        # O
234  234  1    84.63115433568966        1.4371166387154566       8.040569334518267        # O
235  235  1    94.58806509831881        1.4371166387154566       8.040569334518267        # O
236  236  1    104.5444009203572        1.4371166387154566       8.040569334518267        # O
237  237  1    114.50131168298634       1.4371166387154566       8.040569334518267        # O
238  238  1    124.45764756235826       1.4371166387154566       8.040569334518267        # O
239  239  1    134.4145582676539        1.4371166387154566       8.040569334518267        # O
240  240  1    144.3708941470258        1.4371166387154566       8.040569334518267        # O
241  241  1    154.3278048523214        1.4371166387154566       8.040569334518267        # O
242  242  1    4.978167939685965        1.4371166387154566       8.040569334518267        # O
243  243  1    14.935078644981578       1.4371166387154566       8.040569334518267        # O
244  244  1    24.891414524353507       1.4371166387154566       8.040569334518267        # O
245  245  1    34.84832528698264        1.4371166387154566       8.040569334518267        # O
246  246  1    44.80466116635458        1.4371166387154566       8.040569334518267        # O
247  247  1    54.76157187165018        1.4371166387154566       8.040569334518267        # O
248  248  1    64.71790775102212        1.4371166387154566       8.040569334518267        # O
249  249  1    74.67481845631772        1.4371166387154566       8.040569334518267        # O
250  250  1    84.63115433568966        7.185583250910809        8.040569334518267        # O
251  251  1    94.58806509831881        7.185583250910809        8.040569334518267        # O
252  252  1    104.5444009203572        7.185583250910809        8.040569334518267        # O
253  253  1    114.50131168298634       7.185583250910809        8.040569334518267        # O
254  254  1    124.45764756235826       7.185583250910809        8.040569334518267        # O
255  255  1    134.4145582676539        7.185583250910809        8.040569334518267        # O
256  256  1    144.3708941470258        7.185583250910809        8.040569334518267        # O
257  257  1    154.3278048523214        7.185583250910809        8.040569334518267        # O
258  258  1    4.978167939685965        7.185583250910809        8.040569334518267        # O
259  259  1    14.935078644981578       7.185583250910809        8.040569334518267        # O
260  260  1    24.891414524353507       7.185583250910809        8.040569334518267        # O
261  261  1    34.84832528698264        7.185583250910809        8.040569334518267        # O
262  262  1    44.80466116635458        7.185583250910809        8.040569334518267        # O
263  263  1    54.76157187165018        7.185583250910809        8.040569334518267        # O
264  264  1    64.71790775102212        7.185583250910809        8.040569334518267        # O
265  265  1    74.67481845631772        7.185583250910809        8.040569334518267        # O
266  266  1    79.6529863960037         10.05981652834172        8.040569334518267        # O
267  267  1    89.60989715863283        10.05981652834172        8.040569334518267        # O
268  268  1    99.56623303800477        10.05981652834172        8.040569334518267        # O
269  269  1    109.52314374330037       10.05981652834172        8.040569334518267        # O
270  270  1    119.4794796226723        10.05981652834172        8.040569334518267        # O
271  271  1    129.43639032796793       10.05981652834172        8.040569334518267        # O
272  272  1    139.39272620733985       10.05981652834172        8.040569334518267        # O
273  273  1    149.34963691263545       10.05981652834172        8.040569334518267        # O
274  274  1    159.3059727920074        10.05981652834172        8.040569334518267        # O
275  275  1    9.956910705295613        10.05981652834172        8.040569334518267        # O
276  276  1    19.91324658466754        10.05981652834172        8.040569334518267        # O
277  277  1    29.87015734729668        10.05981652834172        8.040569334518267        # O
278  278  1    39.82649322666861        10.05981652834172        8.040569334518267        # O
279  279  1    49.78340393196422        10.05981652834172        8.040569334518267        # O
280  280  1    59.73973981133615        10.05981652834172        8.040569334518267        # O
281  281  1    69.69665051663176        10.05981652834172        8.040569334518267        # O
282  282  1    89.60989715863283        15.808283140537073       8.040569334518267        # O
283  283  1    99.56623303800477        15.808283140537073       8.040569334518267        # O
284  284  1    109.52314374330037       15.808283140537073       8.040569334518267        # O
285  285  1    119.4794796226723        15.808283140537073       8.040569334518267        # O
286  286  1    129.43639032796793       15.808283140537073       8.040569334518267        # O
287  287  1    139.39272620733985       15.808283140537073       8.040569334518267        # O
288  288  1    149.34963691263545       15.808283140537073       8.040569334518267        # O
289  289  1    159.3059727920074        15.808283140537073       8.040569334518267        # O
290  290  1    9.956910705295613        15.808283140537073       8.040569334518267        # O
291  291  1    19.91324658466754        15.808283140537073       8.040569334518267        # O
292  292  1    29.87015734729668        15.808283140537073       8.040569334518267        # O
293  293  1    39.82649322666861        15.808283140537073       8.040569334518267        # O
294  294  1    49.78340393196422        15.808283140537073       8.040569334518267        # O
295  295  1    59.73973981133615        15.808283140537073       8.040569334518267        # O
296  296  1    69.69665051663176        15.808283140537073       8.040569334518267        # O
297  297  1    79.6529863960037         15.808283140537073       8.040569334518267        # O
298  298  1    84.63115433568966        18.68251647530151        8.040569334518267        # O
299  299  1    94.58806509831881        18.68251647530151        8.040569334518267        # O
300  300  1    104.5444009203572        18.68251647530151        8.040569334518267        # O
301  301  1    114.50131168298634       18.68251647530151        8.040569334518267        # O
302  302  1    124.45764756235826       18.68251647530151        8.040569334518267        # O
303  303  1    134.4145582676539        18.68251647530151        8.040569334518267        # O
304  304  1    144.3708941470258        18.68251647530151        8.040569334518267        # O
305  305  1    154.3278048523214        18.68251647530151        8.040569334518267        # O
306  306  1    4.978167939685965        18.68251647530151        8.040569334518267        # O
307  307  1    14.935078644981578       18.68251647530151        8.040569334518267        # O
308  308  1    24.891414524353507       18.68251647530151        8.040569334518267        # O
309  309  1    34.84832528698264        18.68251647530151        8.040569334518267        # O
310  310  1    44.80466116635458        18.68251647530151        8.040569334518267        # O
311  311  1    54.76157187165018        18.68251647530151        8.040569334518267        # O
312  312  1    64.71790775102212        18.68251647530151        8.040569334518267        # O
313  313  1    74.67481845631772        18.68251647530151        8.040569334518267        # O
314  314  1    84.63115433568966        24.43098303016334        8.040569334518267        # O