DATA FILE Produced from netmc results (cf David Morley)
420 atoms
1008 bonds
0 angles
0 dihedrals
0 impropers
2 atom types
2 bond types
0 angle types
0 dihedral types
0 improper types
0.00000 91.01415103783484 xlo xhi
0.00000 78.82056573017375 ylo yhi

# Pair Coeffs
#
# 1  O
# 2  Si

# Bond Coeffs
# 
# 1  O-O
# 2  Si-O
# 3  O-O rep
# 4  Si-Si rep

 Masses

1 28.10000 # O 
2 32.01000 # Si

 Atoms # molecular

1    1    2    72.05294437817467        44.883933263015614       5.0                      # Si
2    2    2    79.63723436954473        44.883933263015614       5.0                      # Si
3    3    2    87.22196225294662        44.883933263015614       5.0                      # Si
4    4    2    3.7921449956850264       44.883933263015614       5.0                      # Si
5    5    2    11.376872879086914       44.883933263015614       5.0                      # Si
6    6    2    18.961162870456967       44.883933263015614       5.0                      # Si
7    7    2    75.84508937385971        47.07339342218711        5.0                      # Si
8    8    2    83.4298172572616         47.07339342218711        5.0                      # Si
9    9    2    91.01410724863165        47.07339342218711        5.0                      # Si
10   10   2    7.584727883401887        47.07339342218711        5.0                      # Si
11   11   2    15.16901787477194        47.07339342218711        5.0                      # Si
12   12   2    68.26079938248964        51.452313740530094       5.0                      # Si
13   13   2    75.84508937385971        51.452313740530094       5.0                      # Si
14   14   2    83.4298172572616         51.452313740530094       5.0                      # Si
15   15   2    91.01410724863165        51.452313740530094       5.0                      # Si
16   16   2    7.584727883401887        51.452313740530094       5.0                      # Si
17   17   2    15.16901787477194        51.452313740530094       5.0                      # Si
18   18   2    22.753745758173828       51.452313740530094       5.0                      # Si
19   19   2    72.05294437817467        53.64177389970158        5.0                      # Si
20   20   2    79.63723436954473        53.64177389970158        5.0                      # Si
21   21   2    87.22196225294662        53.64177389970158        5.0                      # Si
22   22   2    3.7921449956850264       53.64177389970158        5.0                      # Si
23   23   2    11.376872879086914       53.64177389970158        5.0                      # Si
24   24   2    18.961162870456967       53.64177389970158        5.0                      # Si
25   25   2    64.46821649477279        58.02069421804457        5.0                      # Si
26   26   2    72.05294437817467        58.02069421804457        5.0                      # Si
27   27   2    79.63723436954473        58.02069421804457        5.0                      # Si
28   28   2    87.22196225294662        58.02069421804457        5.0                      # Si
29   29   2    3.7921449956850264       58.02069421804457        5.0                      # Si
30   30   2    11.376872879086914       58.02069421804457        5.0                      # Si
31   31   2    18.961162870456967       58.02069421804457        5.0                      # Si
32   32   2    26.545890753858853       58.02069421804457        5.0                      # Si
33   33   2    45.50705362431582        60.210154377216064       5.0                      # Si
34   34   2    53.091781507717705       60.210154377216064       5.0                      # Si
35   35   2    60.67607149908776        60.210154377216064       5.0                      # Si
36   36   2    68.26079938248964        60.210154377216064       5.0                      # Si
37   37   2    75.84508937385971        60.210154377216064       5.0                      # Si
38   38   2    83.4298172572616         60.210154377216064       5.0                      # Si
39   39   2    91.01410724863165        60.210154377216064       5.0                      # Si
40   40   2    7.584727883401887        60.210154377216064       5.0                      # Si
41   41   2    15.16901787477194        60.210154377216064       5.0                      # Si
42   42   2    22.753745758173828       60.210154377216064       5.0                      # Si
43   43   2    30.33803574954388        60.210154377216064       5.0                      # Si
44   44   2    37.92276363294577        60.210154377216064       5.0                      # Si
45   45   2    53.091781507717705       64.58907469555905        5.0                      # Si
46   46   2    60.67607149908776        64.58907469555905        5.0                      # Si
47   47   2    68.26079938248964        64.58907469555905        5.0                      # Si
48   48   2    75.84508937385971        64.58907469555905        5.0                      # Si
49   49   2    83.4298172572616         64.58907469555905        5.0                      # Si
50   50   2    91.01410724863165        64.58907469555905        5.0                      # Si
51   51   2    7.584727883401887        64.58907469555905        5.0                      # Si
52   52   2    15.16901787477194        64.58907469555905        5.0                      # Si
53   53   2    22.753745758173828       64.58907469555905        5.0                      # Si
54   54   2    30.33803574954388        64.58907469555905        5.0                      # Si
55   55   2    37.92276363294577        64.58907469555905        5.0                      # Si
56   56   2    45.50705362431582        64.58907469555905        5.0                      # Si
57   57   2    49.29919862000085        66.77853485473055        5.0                      # Si
58   58   2    56.883926503402726       66.77853485473055        5.0                      # Si
59   59   2    64.46821649477279        66.77853485473055        5.0                      # Si
60   60   2    72.05294437817467        66.77853485473055        5.0                      # Si
61   61   2    79.63723436954473        66.77853485473055        5.0                      # Si
62   62   2    87.22196225294662        66.77853485473055        5.0                      # Si
63   63   2    3.7921449956850264       66.77853485473055        5.0                      # Si
64   64   2    11.376872879086914       66.77853485473055        5.0                      # Si
65   65   2    18.961162870456967       66.77853485473055        5.0                      # Si
66   66   2    26.545890753858853       66.77853485473055        5.0                      # Si
67   67   2    34.130180745228905       66.77853485473055        5.0                      # Si
68   68   2    41.7149086286308         66.77853485473055        5.0                      # Si
69   69   2    49.29919862000085        71.15745517307353        5.0                      # Si
70   70   2    56.883926503402726       71.15745517307353        5.0                      # Si
71   71   2    64.46821649477279        71.15745517307353        5.0                      # Si
72   72   2    72.05294437817467        71.15745517307353        5.0                      # Si
73   73   2    79.63723436954473        71.15745517307353        5.0                      # Si
74   74   2    87.22196225294662        71.15745517307353        5.0                      # Si
75   75   2    3.7921449956850264       71.15745517307353        5.0                      # Si
76   76   2    11.376872879086914       71.15745517307353        5.0                      # Si
77   77   2    18.961162870456967       71.15745517307353        5.0                      # Si
78   78   2    26.545890753858853       71.15745517307353        5.0                      # Si
79   79   2    34.130180745228905       71.15745517307353        5.0                      # Si
80   80   2    41.7149086286308         71.15745517307353        5.0                      # Si
81   81   2    45.50705362431582        73.34691533224502        5.0                      # Si
82   82   2    53.091781507717705       73.34691533224502        5.0                      # Si
83   83   2    60.67607149908776        73.34691533224502        5.0                      # Si
84   84   2    68.26079938248964        73.34691533224502        5.0                      # Si
85   85   2    75.84508937385971        73.34691533224502        5.0                      # Si
86   86   2    83.4298172572616         73.34691533224502        5.0                      # Si
87   87   2    91.01410724863165        73.34691533224502        5.0                      # Si
88   88   2    7.584727883401887        73.34691533224502        5.0                      # Si
89   89   2    15.16901787477194        73.34691533224502        5.0                      # Si
90   90   2    22.753745758173828       73.34691533224502        5.0                      # Si
91   91   2    30.33803574954388        73.34691533224502        5.0                      # Si
92   92   2    37.92276363294577        73.34691533224502        5.0                      # Si
93   93   2    53.091781507717705       77.72583565058801        5.0                      # Si
94   94   2    60.67607149908776        77.72583565058801        5.0                      # Si
95   95   2    68.26079938248964        77.72583565058801        5.0                      # Si
96   96   2    75.84508937385971        77.72583565058801        5.0                      # Si
97   97   2    83.4298172572616         77.72583565058801        5.0                      # Si
98   98   2    91.01410724863165        77.72583565058801        5.0                      # Si
99   99   2    7.584727883401887        77.72583565058801        5.0                      # Si
100  100  2    15.16901787477194        77.72583565058801        5.0                      # Si
101  101  2    22.753745758173828       77.72583565058801        5.0                      # Si
102  102  2    30.33803574954388        77.72583565058801        5.0                      # Si
103  103  2    37.92276363294577        77.72583565058801        5.0                      # Si
104  104  2    45.50705362431582        77.72583565058801        5.0                      # Si
105  105  2    64.46821649477279        1.0947300795857466       5.0                      # Si
106  106  2    72.05294437817467        1.0947300795857466       5.0                      # Si
107  107  2    79.63723436954473        1.0947300795857466       5.0                      # Si
108  108  2    87.22196225294662        1.0947300795857466       5.0                      # Si
109  109  2    3.7921449956850264       1.0947300795857466       5.0                      # Si
110  110  2    11.376872879086914       1.0947300795857466       5.0                      # Si
111  111  2    18.961162870456967       1.0947300795857466       5.0                      # Si
112  112  2    26.545890753858853       1.0947300795857466       5.0                      # Si
113  113  2    72.05294437817467        5.473650397928733        5.0                      # Si
114  114  2    79.63723436954473        5.473650397928733        5.0                      # Si
115  115  2    87.22196225294662        5.473650397928733        5.0                      # Si
116  116  2    3.7921449956850264       5.473650397928733        5.0                      # Si
117  117  2    11.376872879086914       5.473650397928733        5.0                      # Si
118  118  2    18.961162870456967       5.473650397928733        5.0                      # Si
119  119  2    68.26079938248964        7.663110557100227        5.0                      # Si
120  120  2    75.84508937385971        7.663110557100227        5.0                      # Si
121  121  2    83.4298172572616         7.663110557100227        5.0                      # Si
122  122  2    91.01410724863165        7.663110557100227        5.0                      # Si
123  123  2    7.584727883401887        7.663110557100227        5.0                      # Si
124  124  2    15.16901787477194        7.663110557100227        5.0                      # Si
125  125  2    22.753745758173828       7.663110557100227        5.0                      # Si
126  126  2    75.84508937385971        12.042030875443212       5.0                      # Si
127  127  2    83.4298172572616         12.042030875443212       5.0                      # Si
128  128  2    91.01410724863165        12.042030875443212       5.0                      # Si
129  129  2    7.584727883401887        12.042030875443212       5.0                      # Si
130  130  2    15.16901787477194        12.042030875443212       5.0                      # Si
131  131  2    72.05294437817467        14.231491034614708       5.0                      # Si
132  132  2    79.63723436954473        14.231491034614708       5.0                      # Si
133  133  2    87.22196225294662        14.231491034614708       5.0                      # Si
134  134  2    3.7921449956850264       14.231491034614708       5.0                      # Si
135  135  2    11.376872879086914       14.231491034614708       5.0                      # Si
136  136  2    18.961162870456967       14.231491034614708       5.0                      # Si
137  137  2    79.63723436954473        18.610411352957694       5.0                      # Si
138  138  2    87.22196225294662        18.610411352957694       5.0                      # Si
139  139  2    3.7921449956850264       18.610411352957694       5.0                      # Si
140  140  2    11.376872879086914       18.610411352957694       5.0                      # Si
141  141  2    75.84508937385971        20.799871512129187       5.0                      # Si
142  142  2    83.4298172572616         20.799871512129187       5.0                      # Si
143  143  2    91.01410724863165        20.799871512129187       5.0                      # Si
144  144  2    7.584727883401887        20.799871512129187       5.0                      # Si
145  145  2    15.16901787477194        20.799871512129187       5.0                      # Si
146  146  2    83.4298172572616         25.178791830472175       5.0                      # Si
147  147  2    91.01410724863165        25.178791830472175       5.0                      # Si
148  148  2    7.584727883401887        25.178791830472175       5.0                      # Si
149  149  2    79.63723436954473        27.368251989643667       5.0                      # Si
150  150  2    87.22196225294662        27.368251989643667       5.0                      # Si
151  151  2    3.7921449956850264       27.368251989643667       5.0                      # Si
152  152  2    11.376872879086914       27.368251989643667       5.0                      # Si
153  153  2    79.63723436954473        31.747172307986652       5.0                      # Si
154  154  2    87.22196225294662        31.747172307986652       5.0                      # Si
155  155  2    3.7921449956850264       31.747172307986652       5.0                      # Si
156  156  2    11.376872879086914       31.747172307986652       5.0                      # Si
157  157  2    83.4298172572616         33.93663246715814        5.0                      # Si
158  158  2    91.01410724863165        33.93663246715814        5.0                      # Si
159  159  2    7.584727883401887        33.93663246715814        5.0                      # Si
160  160  2    75.84508937385971        38.31555278550113        5.0                      # Si
161  161  2    83.4298172572616         38.31555278550113        5.0                      # Si
162  162  2    91.01410724863165        38.31555278550113        5.0                      # Si
163  163  2    7.584727883401887        38.31555278550113        5.0                      # Si
164  164  2    15.16901787477194        38.31555278550113        5.0                      # Si
165  165  2    79.63723436954473        40.50501294467263        5.0                      # Si
166  166  2    87.22196225294662        40.50501294467263        5.0                      # Si
167  167  2    3.7921449956850264       40.50501294467263        5.0                      # Si
168  168  2    11.376872879086914       40.50501294467263        5.0                      # Si
169  169  1    73.6990168760172         46.41167604449358        5.0                      # O
170  170  1    73.9490168760172         41.59974302425837        5.0                      # O
171  171  1    70.15687188033215        48.168123501772854       5.0                      # O
172  172  1    77.74116187170222        45.978663342601365       5.0                      # O
173  173  1    81.28352581340317        46.41167604449358        5.0                      # O
174  174  1    80.13723436954473        42.69447310384412        5.0                      # O
175  175  1    85.32588975510411        45.978663342601365       5.0                      # O
176  176  1    88.86803475078914        46.41167604449358        5.0                      # O
177  177  1    87.72196225294662        42.69447310384412        5.0                      # O
178  178  1    1.896050603240921        45.978663342601365       5.0                      # O
179  179  1    5.438436439543457        46.41167604449358        5.0                      # O
180  180  1    4.292144995685026        42.69447310384412        5.0                      # O
181  181  1    9.4808003812444          45.978663342601365       5.0                      # O
182  182  1    13.022945376929428       46.41167604449358        5.0                      # O
183  183  1    11.876872879086914       42.69447310384412        5.0                      # O
184  184  1    17.065090372614453       45.978663342601365       5.0                      # O
185  185  1    20.857454314315397       48.168123501772854       5.0                      # O
186  186  1    17.065090372614453       41.59974302425837        5.0                      # O
187  187  1    76.34508937385971        49.2628535813586         5.0                      # O
188  188  1    83.9298172572616         49.2628535813586         5.0                      # O
189  189  1    0.4999562107968103       49.2628535813586         5.0                      # O
190  190  1    8.084727883401886        49.2628535813586         5.0                      # O
191  191  1    15.66901787477194        49.2628535813586         5.0                      # O
192  192  1    69.90687188033215        52.980056522008056       5.0                      # O
193  193  1    66.36450793863122        54.736503979287335       5.0                      # O
194  194  1    73.9490168760172         52.54704382011584        5.0                      # O
195  195  1    77.49116187170222        52.980056522008056       5.0                      # O
196  196  1    81.53352581340317        52.54704382011584        5.0                      # O
197  197  1    85.07588975510411        52.980056522008056       5.0                      # O
198  198  1    89.11803475078914        52.54704382011584        5.0                      # O
199  199  1    1.6460506032409228       52.980056522008056       5.0                      # O
200  200  1    5.688436439543457        52.54704382011584        5.0                      # O
201  201  1    9.2308003812444          52.980056522008056       5.0                      # O
202  202  1    13.272945376929428       52.54704382011584        5.0                      # O
203  203  1    16.815090372614453       52.980056522008056       5.0                      # O
204  204  1    20.857454314315397       52.54704382011584        5.0                      # O
205  205  1    24.64981825601634        54.736503979287335       5.0                      # O
206  206  1    72.55294437817467        55.83123405887308        5.0                      # O
207  207  1    80.13723436954473        55.83123405887308        5.0                      # O
208  208  1    87.72196225294662        55.83123405887308        5.0                      # O
209  209  1    4.292144995685026        55.83123405887308        5.0                      # O
210  210  1    11.876872879086914       55.83123405887308        5.0                      # O
211  211  1    19.461162870456967       55.83123405887308        5.0                      # O
212  212  1    62.57214399693028        59.11542429763031        5.0                      # O
213  213  1    66.11450793863122        59.54843699952253        5.0                      # O
214  214  1    70.15687188033215        59.11542429763031        5.0                      # O
215  215  1    73.6990168760172         59.54843699952253        5.0                      # O
216  216  1    77.74116187170222        59.11542429763031        5.0                      # O
217  217  1    81.28352581340317        59.54843699952253        5.0                      # O
218  218  1    85.32588975510411        59.11542429763031        5.0                      # O
219  219  1    88.86803475078914        59.54843699952253        5.0                      # O
220  220  1    1.896050603240921        59.11542429763031        5.0                      # O
221  221  1    5.438436439543457        59.54843699952253        5.0                      # O
222  222  1    9.4808003812444          59.11542429763031        5.0                      # O
223  223  1    13.022945376929428       59.54843699952253        5.0                      # O
224  224  1    17.065090372614453       59.11542429763031        5.0                      # O
225  225  1    20.607454314315397       59.54843699952253        5.0                      # O
226  226  1    24.64981825601634        59.11542429763031        5.0                      # O
227  227  1    28.191963251701367       59.54843699952253        5.0                      # O
228  228  1    46.00705362431582        62.39961453638756        5.0                      # O
229  229  1    41.714908628630795       60.210154377216064       5.0                      # O
230  230  1    49.299417566016764       60.210154377216064       5.0                      # O
231  231  1    53.591781507717705       62.39961453638756        5.0                      # O
232  232  1    56.88392650340273        60.210154377216064       5.0                      # O
233  233  1    61.17607149908776        62.39961453638756        5.0                      # O
234  234  1    68.76079938248964        62.39961453638756        5.0                      # O
235  235  1    76.34508937385971        62.39961453638756        5.0                      # O
236  236  1    83.9298172572616         62.39961453638756        5.0                      # O
237  237  1    0.4999562107968103       62.39961453638756        5.0                      # O
238  238  1    8.084727883401886        62.39961453638756        5.0                      # O
239  239  1    15.66901787477194        62.39961453638756        5.0                      # O
240  240  1    23.253745758173828       62.39961453638756        5.0                      # O
241  241  1    30.83803574954388        62.39961453638756        5.0                      # O
242  242  1    34.130399691244826       60.210154377216064       5.0                      # O
243  243  1    38.42276363294577        62.39961453638756        5.0                      # O
244  244  1    51.19549006385928        65.68380477514481        5.0                      # O
245  245  1    54.737854005560216       66.11681747703703        5.0                      # O
246  246  1    58.779999001245244       65.68380477514481        5.0                      # O
247  247  1    62.32214399693028        66.11681747703703        5.0                      # O
248  248  1    66.36450793863122        65.68380477514481        5.0                      # O
249  249  1    69.90687188033215        66.11681747703703        5.0                      # O
250  250  1    73.9490168760172         65.68380477514481        5.0                      # O
251  251  1    77.49116187170222        66.11681747703703        5.0                      # O
252  252  1    81.53352581340317        65.68380477514481        5.0                      # O
253  253  1    85.07588975510411        66.11681747703703        5.0                      # O
254  254  1    89.11803475078914        65.68380477514481        5.0                      # O
255  255  1    1.6460506032409228       66.11681747703703        5.0                      # O
256  256  1    5.688436439543457        65.68380477514481        5.0                      # O
257  257  1    9.2308003812444          66.11681747703703        5.0                      # O
258  258  1    13.272945376929428       65.68380477514481        5.0                      # O
259  259  1    16.815090372614453       66.11681747703703        5.0                      # O
260  260  1    20.857454314315397       65.68380477514481        5.0                      # O
261  261  1    24.39981825601634        66.11681747703703        5.0                      # O
262  262  1    28.441963251701367       65.68380477514481        5.0                      # O
263  263  1    31.984108247386395       66.11681747703703        5.0                      # O
264  264  1    36.026472189087336       65.68380477514481        5.0                      # O
265  265  1    39.568836130788284       66.11681747703703        5.0                      # O
266  266  1    43.61098112647331        65.68380477514481        5.0                      # O
267  267  1    47.15312612215834        66.11681747703703        5.0                      # O
268  268  1    49.79919862000085        68.96799501390204        5.0                      # O
269  269  1    57.383926503402726       68.96799501390204        5.0                      # O
270  270  1    64.96821649477279        68.96799501390204        5.0                      # O
271  271  1    72.55294437817467        68.96799501390204        5.0                      # O
272  272  1    80.13723436954473        68.96799501390204        5.0                      # O
273  273  1    87.72196225294662        68.96799501390204        5.0                      # O
274  274  1    4.292144995685026        68.96799501390204        5.0                      # O
275  275  1    11.876872879086914       68.96799501390204        5.0                      # O
276  276  1    19.461162870456967       68.96799501390204        5.0                      # O
277  277  1    27.045890753858853       68.96799501390204        5.0                      # O
278  278  1    34.630180745228905       68.96799501390204        5.0                      # O
279  279  1    42.2149086286308         68.96799501390204        5.0                      # O
280  280  1    47.40312612215834        72.25218525265927        5.0                      # O
281  281  1    50.94549006385928        72.6851979545515         5.0                      # O
282  282  1    54.987854005560216       72.25218525265927        5.0                      # O
283  283  1    58.529999001245244       72.6851979545515         5.0                      # O
284  284  1    62.57214399693028        72.25218525265927        5.0                      # O
285  285  1    66.11450793863122        72.6851979545515         5.0                      # O
286  286  1    70.15687188033215        72.25218525265927        5.0                      # O
287  287  1    73.6990168760172         72.6851979545515         5.0                      # O
288  288  1    77.74116187170222        72.25218525265927        5.0                      # O
289  289  1    81.28352581340317        72.6851979545515         5.0                      # O
290  290  1    85.32588975510411        72.25218525265927        5.0                      # O
291  291  1    88.86803475078914        72.6851979545515         5.0                      # O
292  292  1    1.896050603240921        72.25218525265927        5.0                      # O
293  293  1    5.438436439543457        72.6851979545515         5.0                      # O
294  294  1    9.4808003812444          72.25218525265927        5.0                      # O
295  295  1    13.022945376929428       72.6851979545515         5.0                      # O
296  296  1    17.065090372614453       72.25218525265927        5.0                      # O
297  297  1    20.607454314315397       72.6851979545515         5.0                      # O
298  298  1    24.64981825601634        72.25218525265927        5.0                      # O
299  299  1    28.191963251701367       72.6851979545515         5.0                      # O
300  300  1    32.234108247386395       72.25218525265927        5.0                      # O
301  301  1    35.776472189087336       72.6851979545515         5.0                      # O
302  302  1    39.818836130788284       72.25218525265927        5.0                      # O
303  303  1    43.36098112647331        72.6851979545515         5.0                      # O
304  304  1    46.00705362431582        75.53637549141652        5.0                      # O
305  305  1    53.591781507717705       75.53637549141652        5.0                      # O
306  306  1    61.17607149908776        75.53637549141652        5.0                      # O
307  307  1    68.76079938248964        75.53637549141652        5.0                      # O
308  308  1    76.34508937385971        75.53637549141652        5.0                      # O
309  309  1    83.9298172572616         75.53637549141652        5.0                      # O
310  310  1    0.4999562107968103       75.53637549141652        5.0                      # O
311  311  1    8.084727883401886        75.53637549141652        5.0                      # O
312  312  1    15.66901787477194        75.53637549141652        5.0                      # O