DATA FILE Produced from netmc results (cf David Morley)
1008 atoms
3360 bonds
0 angles
0 dihedrals
0 impropers
2 atom types
0 bond types
2 bond types
0 angle types
0 dihedral types
0 improper types
0.00000 91.01415103783484 xlo xhi
0.00000 78.82056573017375 ylo yhi
0.0000 200.0000 zlo zhi

# Pair Coeffs
#
# 1  O
# 2  Si

# Bond Coeffs
# 
# 1  O-O
# 2  Si-O
# 3  O-O rep
# 4  Si-Si rep

 Masses

1 28.10000 # O 
2 32.01000 # Si

 Atoms # molecular

1    1    2    72.05294437817467        44.883933263015614       5.0                      # Si
2    2    2    72.05294437817467        44.883933263015614       11.081138669036534       # Si
3    3    2    79.63723436954473        44.883933263015614       5.0                      # Si
4    4    2    79.63723436954473        44.883933263015614       11.081138669036534       # Si
5    5    2    87.22196225294662        44.883933263015614       5.0                      # Si
6    6    2    87.22196225294662        44.883933263015614       11.081138669036534       # Si
7    7    2    3.7921449956850264       44.883933263015614       5.0                      # Si
8    8    2    3.7921449956850264       44.883933263015614       11.081138669036534       # Si
9    9    2    11.376872879086914       44.883933263015614       5.0                      # Si
10   10   2    11.376872879086914       44.883933263015614       11.081138669036534       # Si
11   11   2    18.961162870456967       44.883933263015614       5.0                      # Si
12   12   2    18.961162870456967       44.883933263015614       11.081138669036534       # Si
13   13   2    75.84508937385971        47.07339342218711        5.0                      # Si
14   14   2    75.84508937385971        47.07339342218711        11.081138669036534       # Si
15   15   2    83.4298172572616         47.07339342218711        5.0                      # Si
16   16   2    83.4298172572616         47.07339342218711        11.081138669036534       # Si
17   17   2    91.01410724863165        47.07339342218711        5.0                      # Si
18   18   2    91.01410724863165        47.07339342218711        11.081138669036534       # Si
19   19   2    7.584727883401887        47.07339342218711        5.0                      # Si
20   20   2    7.584727883401887        47.07339342218711        11.081138669036534       # Si
21   21   2    15.16901787477194        47.07339342218711        5.0                      # Si
22   22   2    15.16901787477194        47.07339342218711        11.081138669036534       # Si
23   23   2    68.26079938248964        51.452313740530094       5.0                      # Si
24   24   2    68.26079938248964        51.452313740530094       11.081138669036534       # Si
25   25   2    75.84508937385971        51.452313740530094       5.0                      # Si
26   26   2    75.84508937385971        51.452313740530094       11.081138669036534       # Si
27   27   2    83.4298172572616         51.452313740530094       5.0                      # Si
28   28   2    83.4298172572616         51.452313740530094       11.081138669036534       # Si
29   29   2    91.01410724863165        51.452313740530094       5.0                      # Si
30   30   2    91.01410724863165        51.452313740530094       11.081138669036534       # Si
31   31   2    7.584727883401887        51.452313740530094       5.0                      # Si
32   32   2    7.584727883401887        51.452313740530094       11.081138669036534       # Si
33   33   2    15.16901787477194        51.452313740530094       5.0                      # Si
34   34   2    15.16901787477194        51.452313740530094       11.081138669036534       # Si
35   35   2    22.753745758173828       51.452313740530094       5.0                      # Si
36   36   2    22.753745758173828       51.452313740530094       11.081138669036534       # Si
37   37   2    72.05294437817467        53.64177389970158        5.0                      # Si
38   38   2    72.05294437817467        53.64177389970158        11.081138669036534       # Si
39   39   2    79.63723436954473        53.64177389970158        5.0                      # Si
40   40   2    79.63723436954473        53.64177389970158        11.081138669036534       # Si
41   41   2    87.22196225294662        53.64177389970158        5.0                      # Si
42   42   2    87.22196225294662        53.64177389970158        11.081138669036534       # Si
43   43   2    3.7921449956850264       53.64177389970158        5.0                      # Si
44   44   2    3.7921449956850264       53.64177389970158        11.081138669036534       # Si
45   45   2    11.376872879086914       53.64177389970158        5.0                      # Si
46   46   2    11.376872879086914       53.64177389970158        11.081138669036534       # Si
47   47   2    18.961162870456967       53.64177389970158        5.0                      # Si
48   48   2    18.961162870456967       53.64177389970158        11.081138669036534       # Si
49   49   2    64.46821649477279        58.02069421804457        5.0                      # Si
50   50   2    64.46821649477279        58.02069421804457        11.081138669036534       # Si
51   51   2    72.05294437817467        58.02069421804457        5.0                      # Si
52   52   2    72.05294437817467        58.02069421804457        11.081138669036534       # Si
53   53   2    79.63723436954473        58.02069421804457        5.0                      # Si
54   54   2    79.63723436954473        58.02069421804457        11.081138669036534       # Si
55   55   2    87.22196225294662        58.02069421804457        5.0                      # Si
56   56   2    87.22196225294662        58.02069421804457        11.081138669036534       # Si
57   57   2    3.7921449956850264       58.02069421804457        5.0                      # Si
58   58   2    3.7921449956850264       58.02069421804457        11.081138669036534       # Si
59   59   2    11.376872879086914       58.02069421804457        5.0                      # Si
60   60   2    11.376872879086914       58.02069421804457        11.081138669036534       # Si
61   61   2    18.961162870456967       58.02069421804457        5.0                      # Si
62   62   2    18.961162870456967       58.02069421804457        11.081138669036534       # Si
63   63   2    26.545890753858853       58.02069421804457        5.0                      # Si
64   64   2    26.545890753858853       58.02069421804457        11.081138669036534       # Si
65   65   2    45.50705362431582        60.210154377216064       5.0                      # Si
66   66   2    45.50705362431582        60.210154377216064       11.081138669036534       # Si
67   67   2    53.091781507717705       60.210154377216064       5.0                      # Si
68   68   2    53.091781507717705       60.210154377216064       11.081138669036534       # Si
69   69   2    60.67607149908776        60.210154377216064       5.0                      # Si
70   70   2    60.67607149908776        60.210154377216064       11.081138669036534       # Si
71   71   2    68.26079938248964        60.210154377216064       5.0                      # Si
72   72   2    68.26079938248964        60.210154377216064       11.081138669036534       # Si
73   73   2    75.84508937385971        60.210154377216064       5.0                      # Si
74   74   2    75.84508937385971        60.210154377216064       11.081138669036534       # Si
75   75   2    83.4298172572616         60.210154377216064       5.0                      # Si
76   76   2    83.4298172572616         60.210154377216064       11.081138669036534       # Si
77   77   2    91.01410724863165        60.210154377216064       5.0                      # Si
78   78   2    91.01410724863165        60.210154377216064       11.081138669036534       # Si
79   79   2    7.584727883401887        60.210154377216064       5.0                      # Si
80   80   2    7.584727883401887        60.210154377216064       11.081138669036534       # Si
81   81   2    15.16901787477194        60.210154377216064       5.0                      # Si
82   82   2    15.16901787477194        60.210154377216064       11.081138669036534       # Si
83   83   2    22.753745758173828       60.210154377216064       5.0                      # Si
84   84   2    22.753745758173828       60.210154377216064       11.081138669036534       # Si
85   85   2    30.33803574954388        60.210154377216064       5.0                      # Si
86   86   2    30.33803574954388        60.210154377216064       11.081138669036534       # Si
87   87   2    37.92276363294577        60.210154377216064       5.0                      # Si
88   88   2    37.92276363294577        60.210154377216064       11.081138669036534       # Si
89   89   2    53.091781507717705       64.58907469555905        5.0                      # Si
90   90   2    53.091781507717705       64.58907469555905        11.081138669036534       # Si
91   91   2    60.67607149908776        64.58907469555905        5.0                      # Si
92   92   2    60.67607149908776        64.58907469555905        11.081138669036534       # Si
93   93   2    68.26079938248964        64.58907469555905        5.0                      # Si
94   94   2    68.26079938248964        64.58907469555905        11.081138669036534       # Si
95   95   2    75.84508937385971        64.58907469555905        5.0                      # Si
96   96   2    75.84508937385971        64.58907469555905        11.081138669036534       # Si
97   97   2    83.4298172572616         64.58907469555905        5.0                      # Si
98   98   2    83.4298172572616         64.58907469555905        11.081138669036534       # Si
99   99   2    91.01410724863165        64.58907469555905        5.0                      # Si
100  100  2    91.01410724863165        64.58907469555905        11.081138669036534       # Si
101  101  2    7.584727883401887        64.58907469555905        5.0                      # Si
102  102  2    7.584727883401887        64.58907469555905        11.081138669036534       # Si
103  103  2    15.16901787477194        64.58907469555905        5.0                      # Si
104  104  2    15.16901787477194        64.58907469555905        11.081138669036534       # Si
105  105  2    22.753745758173828       64.58907469555905        5.0                      # Si
106  106  2    22.753745758173828       64.58907469555905        11.081138669036534       # Si
107  107  2    30.33803574954388        64.58907469555905        5.0                      # Si
108  108  2    30.33803574954388        64.58907469555905        11.081138669036534       # Si
109  109  2    37.92276363294577        64.58907469555905        5.0                      # Si
110  110  2    37.92276363294577        64.58907469555905        11.081138669036534       # Si
111  111  2    45.50705362431582        64.58907469555905        5.0                      # Si
112  112  2    45.50705362431582        64.58907469555905        11.081138669036534       # Si
113  113  2    49.29919862000085        66.77853485473055        5.0                      # Si
114  114  2    49.29919862000085        66.77853485473055        11.081138669036534       # Si
115  115  2    56.883926503402726       66.77853485473055        5.0                      # Si
116  116  2    56.883926503402726       66.77853485473055        11.081138669036534       # Si
117  117  2    64.46821649477279        66.77853485473055        5.0                      # Si
118  118  2    64.46821649477279        66.77853485473055        11.081138669036534       # Si
119  119  2    72.05294437817467        66.77853485473055        5.0                      # Si
120  120  2    72.05294437817467        66.77853485473055        11.081138669036534       # Si
121  121  2    79.63723436954473        66.77853485473055        5.0                      # Si
122  122  2    79.63723436954473        66.77853485473055        11.081138669036534       # Si
123  123  2    87.22196225294662        66.77853485473055        5.0                      # Si
124  124  2    87.22196225294662        66.77853485473055        11.081138669036534       # Si
125  125  2    3.7921449956850264       66.77853485473055        5.0                      # Si
126  126  2    3.7921449956850264       66.77853485473055        11.081138669036534       # Si
127  127  2    11.376872879086914       66.77853485473055        5.0                      # Si
128  128  2    11.376872879086914       66.77853485473055        11.081138669036534       # Si
129  129  2    18.961162870456967       66.77853485473055        5.0                      # Si
130  130  2    18.961162870456967       66.77853485473055        11.081138669036534       # Si
131  131  2    26.545890753858853       66.77853485473055        5.0                      # Si
132  132  2    26.545890753858853       66.77853485473055        11.081138669036534       # Si
133  133  2    34.130180745228905       66.77853485473055        5.0                      # Si
134  134  2    34.130180745228905       66.77853485473055        11.081138669036534       # Si
135  135  2    41.7149086286308         66.77853485473055        5.0                      # Si
136  136  2    41.7149086286308         66.77853485473055        11.081138669036534       # Si
137  137  2    49.29919862000085        71.15745517307353        5.0                      # Si
138  138  2    49.29919862000085        71.15745517307353        11.081138669036534       # Si
139  139  2    56.883926503402726       71.15745517307353        5.0                      # Si
140  140  2    56.883926503402726       71.15745517307353        11.081138669036534       # Si
141  141  2    64.46821649477279        71.15745517307353        5.0                      # Si
142  142  2    64.46821649477279        71.15745517307353        11.081138669036534       # Si
143  143  2    72.05294437817467        71.15745517307353        5.0                      # Si
144  144  2    72.05294437817467        71.15745517307353        11.081138669036534       # Si
145  145  2    79.63723436954473        71.15745517307353        5.0                      # Si
146  146  2    79.63723436954473        71.15745517307353        11.081138669036534       # Si
147  147  2    87.22196225294662        71.15745517307353        5.0                      # Si
148  148  2    87.22196225294662        71.15745517307353        11.081138669036534       # Si
149  149  2    3.7921449956850264       71.15745517307353        5.0                      # Si
150  150  2    3.7921449956850264       71.15745517307353        11.081138669036534       # Si
151  151  2    11.376872879086914       71.15745517307353        5.0                      # Si
152  152  2    11.376872879086914       71.15745517307353        11.081138669036534       # Si
153  153  2    18.961162870456967       71.15745517307353        5.0                      # Si
154  154  2    18.961162870456967       71.15745517307353        11.081138669036534       # Si
155  155  2    26.545890753858853       71.15745517307353        5.0                      # Si
156  156  2    26.545890753858853       71.15745517307353        11.081138669036534       # Si
157  157  2    34.130180745228905       71.15745517307353        5.0                      # Si
158  158  2    34.130180745228905       71.15745517307353        11.081138669036534       # Si
159  159  2    41.7149086286308         71.15745517307353        5.0                      # Si
160  160  2    41.7149086286308         71.15745517307353        11.081138669036534       # Si
161  161  2    45.50705362431582        73.34691533224502        5.0                      # Si
162  162  2    45.50705362431582        73.34691533224502        11.081138669036534       # Si
163  163  2    53.091781507717705       73.34691533224502        5.0                      # Si
164  164  2    53.091781507717705       73.34691533224502        11.081138669036534       # Si
165  165  2    60.67607149908776        73.34691533224502        5.0                      # Si
166  166  2    60.67607149908776        73.34691533224502        11.081138669036534       # Si
167  167  2    68.26079938248964        73.34691533224502        5.0                      # Si
168  168  2    68.26079938248964        73.34691533224502        11.081138669036534       # Si
169  169  2    75.84508937385971        73.34691533224502        5.0                      # Si
170  170  2    75.84508937385971        73.34691533224502        11.081138669036534       # Si
171  171  2    83.4298172572616         73.34691533224502        5.0                      # Si
172  172  2    83.4298172572616         73.34691533224502        11.081138669036534       # Si
173  173  2    91.01410724863165        73.34691533224502        5.0                      # Si
174  174  2    91.01410724863165        73.34691533224502        11.081138669036534       # Si
175  175  2    7.584727883401887        73.34691533224502        5.0                      # Si
176  176  2    7.584727883401887        73.34691533224502        11.081138669036534       # Si
177  177  2    15.16901787477194        73.34691533224502        5.0                      # Si
178  178  2    15.16901787477194        73.34691533224502        11.081138669036534       # Si
179  179  2    22.753745758173828       73.34691533224502        5.0                      # Si
180  180  2    22.753745758173828       73.34691533224502        11.081138669036534       # Si
181  181  2    30.33803574954388        73.34691533224502        5.0                      # Si
182  182  2    30.33803574954388        73.34691533224502        11.081138669036534       # Si
183  183  2    37.92276363294577        73.34691533224502        5.0                      # Si
184  184  2    37.92276363294577        73.34691533224502        11.081138669036534       # Si
185  185  2    53.091781507717705       77.72583565058801        5.0                      # Si
186  186  2    53.091781507717705       77.72583565058801        11.081138669036534       # Si
187  187  2    60.67607149908776        77.72583565058801        5.0                      # Si
188  188  2    60.67607149908776        77.72583565058801        11.081138669036534       # Si
189  189  2    68.26079938248964        77.72583565058801        5.0                      # Si
190  190  2    68.26079938248964        77.72583565058801        11.081138669036534       # Si
191  191  2    75.84508937385971        77.72583565058801        5.0                      # Si
192  192  2    75.84508937385971        77.72583565058801        11.081138669036534       # Si
193  193  2    83.4298172572616         77.72583565058801        5.0                      # Si
194  194  2    83.4298172572616         77.72583565058801        11.081138669036534       # Si
195  195  2    91.01410724863165        77.72583565058801        5.0                      # Si
196  196  2    91.01410724863165        77.72583565058801        11.081138669036534       # Si
197  197  2    7.584727883401887        77.72583565058801        5.0                      # Si
198  198  2    7.584727883401887        77.72583565058801        11.081138669036534       # Si
199  199  2    15.16901787477194        77.72583565058801        5.0                      # Si
200  200  2    15.16901787477194        77.72583565058801        11.081138669036534       # Si
201  201  2    22.753745758173828       77.72583565058801        5.0                      # Si
202  202  2    22.753745758173828       77.72583565058801        11.081138669036534       # Si
203  203  2    30.33803574954388        77.72583565058801        5.0                      # Si
204  204  2    30.33803574954388        77.72583565058801        11.081138669036534       # Si
205  205  2    37.92276363294577        77.72583565058801        5.0                      # Si
206  206  2    37.92276363294577        77.72583565058801        11.081138669036534       # Si
207  207  2    45.50705362431582        77.72583565058801        5.0                      # Si
208  208  2    45.50705362431582        77.72583565058801        11.081138669036534       # Si
209  209  2    64.46821649477279        1.0947300795857466       5.0                      # Si
210  210  2    64.46821649477279        1.0947300795857466       11.081138669036534       # Si
211  211  2    72.05294437817467        1.0947300795857466       5.0                      # Si
212  212  2    72.05294437817467        1.0947300795857466       11.081138669036534       # Si
213  213  2    79.63723436954473        1.0947300795857466       5.0                      # Si
214  214  2    79.63723436954473        1.0947300795857466       11.081138669036534       # Si
215  215  2    87.22196225294662        1.0947300795857466       5.0                      # Si
216  216  2    87.22196225294662        1.0947300795857466       11.081138669036534       # Si
217  217  2    3.7921449956850264       1.0947300795857466       5.0                      # Si
218  218  2    3.7921449956850264       1.0947300795857466       11.081138669036534       # Si
219  219  2    11.376872879086914       1.0947300795857466       5.0                      # Si
220  220  2    11.376872879086914       1.0947300795857466       11.081138669036534       # Si
221  221  2    18.961162870456967       1.0947300795857466       5.0                      # Si
222  222  2    18.961162870456967       1.0947300795857466       11.081138669036534       # Si
223  223  2    26.545890753858853       1.0947300795857466       5.0                      # Si
224  224  2    26.545890753858853       1.0947300795857466       11.081138669036534       # Si
225  225  2    72.05294437817467        5.473650397928733        5.0                      # Si
226  226  2    72.05294437817467        5.473650397928733        11.081138669036534       # Si
227  227  2    79.63723436954473        5.473650397928733        5.0                      # Si
228  228  2    79.63723436954473        5.473650397928733        11.081138669036534       # Si
229  229  2    87.22196225294662        5.473650397928733        5.0                      # Si
230  230  2    87.22196225294662        5.473650397928733        11.081138669036534       # Si
231  231  2    3.7921449956850264       5.473650397928733        5.0                      # Si
232  232  2    3.7921449956850264       5.473650397928733        11.081138669036534       # Si
233  233  2    11.376872879086914       5.473650397928733        5.0                      # Si
234  234  2    11.376872879086914       5.473650397928733        11.081138669036534       # Si
235  235  2    18.961162870456967       5.473650397928733        5.0                      # Si
236  236  2    18.961162870456967       5.473650397928733        11.081138669036534       # Si
237  237  2    68.26079938248964        7.663110557100227        5.0                      # Si
238  238  2    68.26079938248964        7.663110557100227        11.081138669036534       # Si
239  239  2    75.84508937385971        7.663110557100227        5.0                      # Si
240  240  2    75.84508937385971        7.663110557100227        11.081138669036534       # Si
241  241  2    83.4298172572616         7.663110557100227        5.0                      # Si
242  242  2    83.4298172572616         7.663110557100227        11.081138669036534       # Si
243  243  2    91.01410724863165        7.663110557100227        5.0                      # Si
244  244  2    91.01410724863165        7.663110557100227        11.081138669036534       # Si
245  245  2    7.584727883401887        7.663110557100227        5.0                      # Si
246  246  2    7.584727883401887        7.663110557100227        11.081138669036534       # Si
247  247  2    15.16901787477194        7.663110557100227        5.0                      # Si
248  248  2    15.16901787477194        7.663110557100227        11.081138669036534       # Si
249  249  2    22.753745758173828       7.663110557100227        5.0                      # Si
250  250  2    22.753745758173828       7.663110557100227        11.081138669036534       # Si
251  251  2    75.84508937385971        12.042030875443212       5.0                      # Si
252  252  2    75.84508937385971        12.042030875443212       11.081138669036534       # Si
253  253  2    83.4298172572616         12.042030875443212       5.0                      # Si
254  254  2    83.4298172572616         12.042030875443212       11.081138669036534       # Si
255  255  2    91.01410724863165        12.042030875443212       5.0                      # Si
256  256  2    91.01410724863165        12.042030875443212       11.081138669036534       # Si
257  257  2    7.584727883401887        12.042030875443212       5.0                      # Si
258  258  2    7.584727883401887        12.042030875443212       11.081138669036534       # Si
259  259  2    15.16901787477194        12.042030875443212       5.0                      # Si
260  260  2    15.16901787477194        12.042030875443212       11.081138669036534       # Si
261  261  2    72.05294437817467        14.231491034614708       5.0                      # Si
262  262  2    72.05294437817467        14.231491034614708       11.081138669036534       # Si
263  263  2    79.63723436954473        14.231491034614708       5.0                      # Si
264  264  2    79.63723436954473        14.231491034614708       11.081138669036534       # Si
265  265  2    87.22196225294662        14.231491034614708       5.0                      # Si
266  266  2    87.22196225294662        14.231491034614708       11.081138669036534       # Si
267  267  2    3.7921449956850264       14.231491034614708       5.0                      # Si
268  268  2    3.7921449956850264       14.231491034614708       11.081138669036534       # Si
269  269  2    11.376872879086914       14.231491034614708       5.0                      # Si
270  270  2    11.376872879086914       14.231491034614708       11.081138669036534       # Si
271  271  2    18.961162870456967       14.231491034614708       5.0                      # Si
272  272  2    18.961162870456967       14.231491034614708       11.081138669036534       # Si
273  273  2    79.63723436954473        18.610411352957694       5.0                      # Si
274  274  2    79.63723436954473        18.610411352957694       11.081138669036534       # Si
275  275  2    87.22196225294662        18.610411352957694       5.0                      # Si
276  276  2    87.22196225294662        18.610411352957694       11.081138669036534       # Si
277  277  2    3.7921449956850264       18.610411352957694       5.0                      # Si
278  278  2    3.7921449956850264       18.610411352957694       11.081138669036534       # Si
279  279  2    11.376872879086914       18.610411352957694       5.0                      # Si
280  280  2    11.376872879086914       18.610411352957694       11.081138669036534       # Si
281  281  2    75.84508937385971        20.799871512129187       5.0                      # Si
282  282  2    75.84508937385971        20.799871512129187       11.081138669036534       # Si
283  283  2    83.4298172572616         20.799871512129187       5.0                      # Si
284  284  2    83.4298172572616         20.799871512129187       11.081138669036534       # Si
285  285  2    91.01410724863165        20.799871512129187       5.0                      # Si
286  286  2    91.01410724863165        20.799871512129187       11.081138669036534       # Si
287  287  2    7.584727883401887        20.799871512129187       5.0                      # Si
288  288  2    7.584727883401887        20.799871512129187       11.081138669036534       # Si
289  289  2    15.16901787477194        20.799871512129187       5.0                      # Si
290  290  2    15.16901787477194        20.799871512129187       11.081138669036534       # Si
291  291  2    83.4298172572616         25.178791830472175       5.0                      # Si
292  292  2    83.4298172572616         25.178791830472175       11.081138669036534       # Si
293  293  2    91.01410724863165        25.178791830472175       5.0                      # Si
294  294  2    91.01410724863165        25.178791830472175       11.081138669036534       # Si
295  295  2    7.584727883401887        25.178791830472175       5.0                      # Si
296  296  2    7.584727883401887        25.178791830472175       11.081138669036534       # Si
297  297  2    79.63723436954473        27.368251989643667       5.0                      # Si
298  298  2    79.63723436954473        27.368251989643667       11.081138669036534       # Si
299  299  2    87.22196225294662        27.368251989643667       5.0                      # Si
300  300  2    87.22196225294662        27.368251989643667       11.081138669036534       # Si
301  301  2    3.7921449956850264       27.368251989643667       5.0                      # Si
302  302  2    3.7921449956850264       27.368251989643667       11.081138669036534       # Si
303  303  2    11.376872879086914       27.368251989643667       5.0                      # Si
304  304  2    11.376872879086914       27.368251989643667       11.081138669036534       # Si
305  305  2    79.63723436954473        31.747172307986652       5.0                      # Si
306  306  2    79.63723436954473        31.747172307986652       11.081138669036534       # Si
307  307  2    87.22196225294662        31.747172307986652       5.0                      # Si
308  308  2    87.22196225294662        31.747172307986652       11.081138669036534       # Si
309  309  2    3.7921449956850264       31.747172307986652       5.0                      # Si
310  310  2    3.7921449956850264       31.747172307986652       11.081138669036534       # Si
311  311  2    11.376872879086914       31.747172307986652       5.0                      # Si