LAMMPS (22 Jul 2025 - Update 1)
OMP_NUM_THREADS environment is not set. Defaulting to 1 thread.
  using 1 OpenMP thread(s) per MPI task
Reading data file ...
  orthogonal box = (0 0 -0.5) to (44.766059 38.768544 0.5)
  1 by 1 by 1 MPI processor grid
  reading atoms ...
  1336 atoms
  scanning bonds ...
  3 = max bonds/atom
  scanning angles ...
  3 = max angles/atom
  orthogonal box = (0 0 -0.5) to (44.766059 38.768544 0.5)
  1 by 1 by 1 MPI processor grid
  reading bonds ...
  2004 bonds
  reading angles ...
  4008 angles
Finding 1-2 1-3 1-4 neighbors ...
  special bond factors lj:    0        0        0       
  special bond factors coul:  0        0        0       
     3 = max # of 1-2 neighbors
     6 = max # of 1-3 neighbors
    18 = max # of 1-4 neighbors
    19 = max # of special neighbors
  special bonds CPU = 0.001 seconds
  read_data CPU = 0.023 seconds
Changing box ...
  orthogonal box = (-0.080192539 0 -0.5) to (44.846251 38.768544 0.5)
  orthogonal box = (-0.080192539 -0.085924028 -0.5) to (44.846251 38.854468 0.5)
Setting up sd style minimization ...
  Unit style    : electron
  Current step  : 0
WARNING: No pairwise cutoff or binsize set. Atom sorting therefore disabled. (src/atom.cpp:2499)
WARNING: Inconsistent image flags
For more information see https://docs.lammps.org/err0027 (src/domain.cpp:1052)
Per MPI rank memory allocation (min/avg/max) = 8.584 | 8.584 | 8.584 Mbytes
---
keywords: ['Step', 'PotEng', 'KinEng', 'E_pair', 'E_bond', 'TotEng', 'Volume', 'Temp', ]
data:
  - [0, 5.18850693475104, 0, 0, 3.82405201917508, 5.18850693475104, 1749.45332728391, 0, ]
  - [648, 2.55419616557627, 0, 0, 1.14014644395634, 2.55419616557627, 1749.45332728391, 0, ]
...
Loop time of 0.304861 on 1 procs for 648 steps with 1336 atoms

99.8% CPU use with 1 MPI tasks x 1 OpenMP threads

Minimization stats:
  Stopping criterion = energy tolerance
  Energy initial, next-to-last, final = 
      5.18850693475104   2.55419870449809   2.55419616557627
  Force two-norm initial, final = 3.8714584 0.0041691524
  Force max component initial, final = 1.3683945 0.00059092228
  Final line search alpha, max atom move = 1 0.00059092228
  Iterations, force evaluations = 648 1291

MPI task timing breakdown:
Section |  min time  |  avg time  |  max time  |%varavg| %total
---------------------------------------------------------------
Pair    | 0          | 0          | 0          |   0.0 |  0.00
Bond    | 0.27777    | 0.27777    | 0.27777    |   0.0 | 91.11
Neigh   | 0          | 0          | 0          |   0.0 |  0.00
Comm    | 0.0030416  | 0.0030416  | 0.0030416  |   0.0 |  1.00
Output  | 0          | 0          | 0          |   0.0 |  0.00
Modify  | 0          | 0          | 0          |   0.0 |  0.00
Other   |            | 0.02405    |            |       |  7.89

Nlocal:           1336 ave        1336 max        1336 min
Histogram: 1 0 0 0 0 0 0 0 0 0
Nghost:            539 ave         539 max         539 min
Histogram: 1 0 0 0 0 0 0 0 0 0
Neighs:              0 ave           0 max           0 min
Histogram: 1 0 0 0 0 0 0 0 0 0

Total # of neighbors = 0
Ave neighs/atom = 0
Ave special neighs/atom = 17.977545
Neighbor list builds = 0
Dangerous builds = 0
Total wall time: 0:00:00
