DATA FILE Produced from netmc results (cf David Morley)
2916 atoms
9720 bonds
0 angles
0 dihedrals
0 impropers
2 atom types
0 bond types
2 bond types
0 angle types
0 dihedral types
0 improper types
0.00000 154.8005184883277 xlo xhi
0.00000 134.06118114822425 ylo yhi
0.0000 200.0000 zlo zhi

# Pair Coeffs
#
# 1  O
# 2  Si

# Bond Coeffs
# 
# 1  O-O
# 2  Si-O
# 3  O-O rep
# 4  Si-Si rep

 Masses

1 28.10000 # O 
2 32.01000 # Si

 Atoms # molecular

1    1    2    91.91290438347733        74.01294375891548        5.0                      # Si
2    2    2    91.91290438347733        74.01294375891548        11.081138669036534       # Si
3    3    2    101.58765295634085       74.01294375891548        5.0                      # Si
4    4    2    101.58765295634085       74.01294375891548        11.081138669036534       # Si
5    5    2    111.26296011745916       74.01294375891548        5.0                      # Si
6    6    2    111.26296011745916       74.01294375891548        11.081138669036534       # Si
7    7    2    120.93770869032268       74.01294375891548        5.0                      # Si
8    8    2    120.93770869032268       74.01294375891548        11.081138669036534       # Si
9    9    2    130.61301585144096       74.01294375891548        5.0                      # Si
10   10   2    130.61301585144096       74.01294375891548        11.081138669036534       # Si
11   11   2    140.28776442430447       74.01294375891548        5.0                      # Si
12   12   2    140.28776442430447       74.01294375891548        11.081138669036534       # Si
13   13   2    149.96307158542282       74.01294375891548        5.0                      # Si
14   14   2    149.96307158542282       74.01294375891548        11.081138669036534       # Si
15   15   2    4.837374286431759        74.01294375891548        5.0                      # Si
16   16   2    4.837374286431759        74.01294375891548        11.081138669036534       # Si
17   17   2    14.51268144755006        74.01294375891548        5.0                      # Si
18   18   2    14.51268144755006        74.01294375891548        11.081138669036534       # Si
19   19   2    24.187430020413576       74.01294375891548        5.0                      # Si
20   20   2    24.187430020413576       74.01294375891548        11.081138669036534       # Si
21   21   2    33.86273718153188        74.01294375891548        5.0                      # Si
22   22   2    33.86273718153188        74.01294375891548        11.081138669036534       # Si
23   23   2    43.5374857543954         74.01294375891548        5.0                      # Si
24   24   2    43.5374857543954         74.01294375891548        11.081138669036534       # Si
25   25   2    53.2127929155137         74.01294375891548        5.0                      # Si
26   26   2    53.2127929155137         74.01294375891548        11.081138669036534       # Si
27   27   2    62.88754148837722        74.01294375891548        5.0                      # Si
28   28   2    62.88754148837722        74.01294375891548        11.081138669036534       # Si
29   29   2    96.7502786699091         76.80588503283681        5.0                      # Si
30   30   2    96.7502786699091         76.80588503283681        11.081138669036534       # Si
31   31   2    106.4255858310274        76.80588503283681        5.0                      # Si
32   32   2    106.4255858310274        76.80588503283681        11.081138669036534       # Si
33   33   2    116.10033440389091       76.80588503283681        5.0                      # Si
34   34   2    116.10033440389091       76.80588503283681        11.081138669036534       # Si
35   35   2    125.77564156500921       76.80588503283681        5.0                      # Si
36   36   2    125.77564156500921       76.80588503283681        11.081138669036534       # Si
37   37   2    135.45039013787272       76.80588503283681        5.0                      # Si
38   38   2    135.45039013787272       76.80588503283681        11.081138669036534       # Si
39   39   2    145.12569729899104       76.80588503283681        5.0                      # Si
40   40   2    145.12569729899104       76.80588503283681        11.081138669036534       # Si
41   41   2    154.80044587185455       76.80588503283681        5.0                      # Si
42   42   2    154.80044587185455       76.80588503283681        11.081138669036534       # Si
43   43   2    9.675307161118301        76.80588503283681        5.0                      # Si
44   44   2    9.675307161118301        76.80588503283681        11.081138669036534       # Si
45   45   2    19.35005573398182        76.80588503283681        5.0                      # Si
46   46   2    19.35005573398182        76.80588503283681        11.081138669036534       # Si
47   47   2    29.02536289510012        76.80588503283681        5.0                      # Si
48   48   2    29.02536289510012        76.80588503283681        11.081138669036534       # Si
49   49   2    38.70011146796364        76.80588503283681        5.0                      # Si
50   50   2    38.70011146796364        76.80588503283681        11.081138669036534       # Si
51   51   2    48.375418629081935       76.80588503283681        5.0                      # Si
52   52   2    48.375418629081935       76.80588503283681        11.081138669036534       # Si
53   53   2    58.050167201945456       76.80588503283681        5.0                      # Si
54   54   2    58.050167201945456       76.80588503283681        11.081138669036534       # Si
55   55   2    87.07553009704557        82.3917675806795         5.0                      # Si
56   56   2    87.07553009704557        82.3917675806795         11.081138669036534       # Si
57   57   2    96.7502786699091         82.3917675806795         5.0                      # Si
58   58   2    96.7502786699091         82.3917675806795         11.081138669036534       # Si
59   59   2    106.4255858310274        82.3917675806795         5.0                      # Si
60   60   2    106.4255858310274        82.3917675806795         11.081138669036534       # Si
61   61   2    116.10033440389091       82.3917675806795         5.0                      # Si
62   62   2    116.10033440389091       82.3917675806795         11.081138669036534       # Si
63   63   2    125.77564156500921       82.3917675806795         5.0                      # Si
64   64   2    125.77564156500921       82.3917675806795         11.081138669036534       # Si
65   65   2    135.45039013787272       82.3917675806795         5.0                      # Si
66   66   2    135.45039013787272       82.3917675806795         11.081138669036534       # Si
67   67   2    145.12569729899104       82.3917675806795         5.0                      # Si
68   68   2    145.12569729899104       82.3917675806795         11.081138669036534       # Si
69   69   2    154.80044587185455       82.3917675806795         5.0                      # Si
70   70   2    154.80044587185455       82.3917675806795         11.081138669036534       # Si
71   71   2    9.675307161118301        82.3917675806795         5.0                      # Si
72   72   2    9.675307161118301        82.3917675806795         11.081138669036534       # Si
73   73   2    19.35005573398182        82.3917675806795         5.0                      # Si
74   74   2    19.35005573398182        82.3917675806795         11.081138669036534       # Si
75   75   2    29.02536289510012        82.3917675806795         5.0                      # Si
76   76   2    29.02536289510012        82.3917675806795         11.081138669036534       # Si
77   77   2    38.70011146796364        82.3917675806795         5.0                      # Si
78   78   2    38.70011146796364        82.3917675806795         11.081138669036534       # Si
79   79   2    48.375418629081935       82.3917675806795         5.0                      # Si
80   80   2    48.375418629081935       82.3917675806795         11.081138669036534       # Si
81   81   2    58.050167201945456       82.3917675806795         5.0                      # Si
82   82   2    58.050167201945456       82.3917675806795         11.081138669036534       # Si
83   83   2    67.72547436306375        82.3917675806795         5.0                      # Si
84   84   2    67.72547436306375        82.3917675806795         11.081138669036534       # Si
85   85   2    82.23759722235903        85.18470885460083        5.0                      # Si
86   86   2    82.23759722235903        85.18470885460083        11.081138669036534       # Si
87   87   2    91.91290438347733        85.18470885460083        5.0                      # Si
88   88   2    91.91290438347733        85.18470885460083        11.081138669036534       # Si
89   89   2    101.58765295634085       85.18470885460083        5.0                      # Si
90   90   2    101.58765295634085       85.18470885460083        11.081138669036534       # Si
91   91   2    111.26296011745916       85.18470885460083        5.0                      # Si
92   92   2    111.26296011745916       85.18470885460083        11.081138669036534       # Si
93   93   2    120.93770869032268       85.18470885460083        5.0                      # Si
94   94   2    120.93770869032268       85.18470885460083        11.081138669036534       # Si
95   95   2    130.61301585144096       85.18470885460083        5.0                      # Si
96   96   2    130.61301585144096       85.18470885460083        11.081138669036534       # Si
97   97   2    140.28776442430447       85.18470885460083        5.0                      # Si
98   98   2    140.28776442430447       85.18470885460083        11.081138669036534       # Si
99   99   2    149.96307158542282       85.18470885460083        5.0                      # Si
100  100  2    149.96307158542282       85.18470885460083        11.081138669036534       # Si
101  101  2    4.837374286431759        85.18470885460083        5.0                      # Si
102  102  2    4.837374286431759        85.18470885460083        11.081138669036534       # Si
103  103  2    14.51268144755006        85.18470885460083        5.0                      # Si
104  104  2    14.51268144755006        85.18470885460083        11.081138669036534       # Si
105  105  2    24.187430020413576       85.18470885460083        5.0                      # Si
106  106  2    24.187430020413576       85.18470885460083        11.081138669036534       # Si
107  107  2    33.86273718153188        85.18470885460083        5.0                      # Si
108  108  2    33.86273718153188        85.18470885460083        11.081138669036534       # Si
109  109  2    43.5374857543954         85.18470885460083        5.0                      # Si
110  110  2    43.5374857543954         85.18470885460083        11.081138669036534       # Si
111  111  2    53.2127929155137         85.18470885460083        5.0                      # Si
112  112  2    53.2127929155137         85.18470885460083        11.081138669036534       # Si
113  113  2    62.88754148837722        85.18470885460083        5.0                      # Si
114  114  2    62.88754148837722        85.18470885460083        11.081138669036534       # Si
115  115  2    72.56284864949552        85.18470885460083        5.0                      # Si
116  116  2    72.56284864949552        85.18470885460083        11.081138669036534       # Si
117  117  2    82.23759722235903        90.77059140244351        5.0                      # Si
118  118  2    82.23759722235903        90.77059140244351        11.081138669036534       # Si
119  119  2    91.91290438347733        90.77059140244351        5.0                      # Si
120  120  2    91.91290438347733        90.77059140244351        11.081138669036534       # Si
121  121  2    101.58765295634085       90.77059140244351        5.0                      # Si
122  122  2    101.58765295634085       90.77059140244351        11.081138669036534       # Si
123  123  2    111.26296011745916       90.77059140244351        5.0                      # Si
124  124  2    111.26296011745916       90.77059140244351        11.081138669036534       # Si
125  125  2    120.93770869032268       90.77059140244351        5.0                      # Si
126  126  2    120.93770869032268       90.77059140244351        11.081138669036534       # Si
127  127  2    130.61301585144096       90.77059140244351        5.0                      # Si
128  128  2    130.61301585144096       90.77059140244351        11.081138669036534       # Si
129  129  2    140.28776442430447       90.77059140244351        5.0                      # Si
130  130  2    140.28776442430447       90.77059140244351        11.081138669036534       # Si
131  131  2    149.96307158542282       90.77059140244351        5.0                      # Si
132  132  2    149.96307158542282       90.77059140244351        11.081138669036534       # Si
133  133  2    4.837374286431759        90.77059140244351        5.0                      # Si
134  134  2    4.837374286431759        90.77059140244351        11.081138669036534       # Si
135  135  2    14.51268144755006        90.77059140244351        5.0                      # Si
136  136  2    14.51268144755006        90.77059140244351        11.081138669036534       # Si
137  137  2    24.187430020413576       90.77059140244351        5.0                      # Si
138  138  2    24.187430020413576       90.77059140244351        11.081138669036534       # Si
139  139  2    33.86273718153188        90.77059140244351        5.0                      # Si
140  140  2    33.86273718153188        90.77059140244351        11.081138669036534       # Si
141  141  2    43.5374857543954         90.77059140244351        5.0                      # Si
142  142  2    43.5374857543954         90.77059140244351        11.081138669036534       # Si
143  143  2    53.2127929155137         90.77059140244351        5.0                      # Si
144  144  2    53.2127929155137         90.77059140244351        11.081138669036534       # Si
145  145  2    62.88754148837722        90.77059140244351        5.0                      # Si
146  146  2    62.88754148837722        90.77059140244351        11.081138669036534       # Si
147  147  2    72.56284864949552        90.77059140244351        5.0                      # Si
148  148  2    72.56284864949552        90.77059140244351        11.081138669036534       # Si
149  149  2    77.40022293592727        93.56353267636486        5.0                      # Si
150  150  2    77.40022293592727        93.56353267636486        11.081138669036534       # Si
151  151  2    87.07553009704557        93.56353267636486        5.0                      # Si
152  152  2    87.07553009704557        93.56353267636486        11.081138669036534       # Si
153  153  2    96.7502786699091         93.56353267636486        5.0                      # Si
154  154  2    96.7502786699091         93.56353267636486        11.081138669036534       # Si
155  155  2    106.4255858310274        93.56353267636486        5.0                      # Si
156  156  2    106.4255858310274        93.56353267636486        11.081138669036534       # Si
157  157  2    116.10033440389091       93.56353267636486        5.0                      # Si
158  158  2    116.10033440389091       93.56353267636486        11.081138669036534       # Si
159  159  2    125.77564156500921       93.56353267636486        5.0                      # Si
160  160  2    125.77564156500921       93.56353267636486        11.081138669036534       # Si
161  161  2    135.45039013787272       93.56353267636486        5.0                      # Si
162  162  2    135.45039013787272       93.56353267636486        11.081138669036534       # Si
163  163  2    145.12569729899104       93.56353267636486        5.0                      # Si
164  164  2    145.12569729899104       93.56353267636486        11.081138669036534       # Si
165  165  2    154.80044587185455       93.56353267636486        5.0                      # Si
166  166  2    154.80044587185455       93.56353267636486        11.081138669036534       # Si
167  167  2    9.675307161118301        93.56353267636486        5.0                      # Si
168  168  2    9.675307161118301        93.56353267636486        11.081138669036534       # Si
169  169  2    19.35005573398182        93.56353267636486        5.0                      # Si
170  170  2    19.35005573398182        93.56353267636486        11.081138669036534       # Si
171  171  2    29.02536289510012        93.56353267636486        5.0                      # Si
172  172  2    29.02536289510012        93.56353267636486        11.081138669036534       # Si
173  173  2    38.70011146796364        93.56353267636486        5.0                      # Si
174  174  2    38.70011146796364        93.56353267636486        11.081138669036534       # Si
175  175  2    48.375418629081935       93.56353267636486        5.0                      # Si
176  176  2    48.375418629081935       93.56353267636486        11.081138669036534       # Si
177  177  2    58.050167201945456       93.56353267636486        5.0                      # Si
178  178  2    58.050167201945456       93.56353267636486        11.081138669036534       # Si
179  179  2    67.72547436306375        93.56353267636486        5.0                      # Si
180  180  2    67.72547436306375        93.56353267636486        11.081138669036534       # Si
181  181  2    87.07553009704557        99.14941522420753        5.0                      # Si
182  182  2    87.07553009704557        99.14941522420753        11.081138669036534       # Si
183  183  2    96.7502786699091         99.14941522420753        5.0                      # Si
184  184  2    96.7502786699091         99.14941522420753        11.081138669036534       # Si
185  185  2    106.4255858310274        99.14941522420753        5.0                      # Si
186  186  2    106.4255858310274        99.14941522420753        11.081138669036534       # Si
187  187  2    116.10033440389091       99.14941522420753        5.0                      # Si
188  188  2    116.10033440389091       99.14941522420753        11.081138669036534       # Si
189  189  2    125.77564156500921       99.14941522420753        5.0                      # Si
190  190  2    125.77564156500921       99.14941522420753        11.081138669036534       # Si
191  191  2    135.45039013787272       99.14941522420753        5.0                      # Si
192  192  2    135.45039013787272       99.14941522420753        11.081138669036534       # Si
193  193  2    145.12569729899104       99.14941522420753        5.0                      # Si
194  194  2    145.12569729899104       99.14941522420753        11.081138669036534       # Si
195  195  2    154.80044587185455       99.14941522420753        5.0                      # Si
196  196  2    154.80044587185455       99.14941522420753        11.081138669036534       # Si
197  197  2    9.675307161118301        99.14941522420753        5.0                      # Si
198  198  2    9.675307161118301        99.14941522420753        11.081138669036534       # Si
199  199  2    19.35005573398182        99.14941522420753        5.0                      # Si
200  200  2    19.35005573398182        99.14941522420753        11.081138669036534       # Si
201  201  2    29.02536289510012        99.14941522420753        5.0                      # Si
202  202  2    29.02536289510012        99.14941522420753        11.081138669036534       # Si
203  203  2    38.70011146796364        99.14941522420753        5.0                      # Si
204  204  2    38.70011146796364        99.14941522420753        11.081138669036534       # Si
205  205  2    48.375418629081935       99.14941522420753        5.0                      # Si
206  206  2    48.375418629081935       99.14941522420753        11.081138669036534       # Si
207  207  2    58.050167201945456       99.14941522420753        5.0                      # Si
208  208  2    58.050167201945456       99.14941522420753        11.081138669036534       # Si
209  209  2    67.72547436306375        99.14941522420753        5.0                      # Si
210  210  2    67.72547436306375        99.14941522420753        11.081138669036534       # Si
211  211  2    77.40022293592727        99.14941522420753        5.0                      # Si
212  212  2    77.40022293592727        99.14941522420753        11.081138669036534       # Si
213  213  2    82.23759722235903        101.94235649812886       5.0                      # Si
214  214  2    82.23759722235903        101.94235649812886       11.081138669036534       # Si
215  215  2    91.91290438347733        101.94235649812886       5.0                      # Si
216  216  2    91.91290438347733        101.94235649812886       11.081138669036534       # Si
217  217  2    101.58765295634085       101.94235649812886       5.0                      # Si
218  218  2    101.58765295634085       101.94235649812886       11.081138669036534       # Si
219  219  2    111.26296011745916       101.94235649812886       5.0                      # Si
220  220  2    111.26296011745916       101.94235649812886       11.081138669036534       # Si
221  221  2    120.93770869032268       101.94235649812886       5.0                      # Si
222  222  2    120.93770869032268       101.94235649812886       11.081138669036534       # Si
223  223  2    130.61301585144096       101.94235649812886       5.0                      # Si
224  224  2    130.61301585144096       101.94235649812886       11.081138669036534       # Si
225  225  2    140.28776442430447       101.94235649812886       5.0                      # Si
226  226  2    140.28776442430447       101.94235649812886       11.081138669036534       # Si
227  227  2    149.96307158542282       101.94235649812886       5.0                      # Si
228  228  2    149.96307158542282       101.94235649812886       11.081138669036534       # Si
229  229  2    4.837374286431759        101.94235649812886       5.0                      # Si
230  230  2    4.837374286431759        101.94235649812886       11.081138669036534       # Si
231  231  2    14.51268144755006        101.94235649812886       5.0                      # Si
232  232  2    14.51268144755006        101.94235649812886       11.081138669036534       # Si
233  233  2    24.187430020413576       101.94235649812886       5.0                      # Si
234  234  2    24.187430020413576       101.94235649812886       11.081138669036534       # Si
235  235  2    33.86273718153188        101.94235649812886       5.0                      # Si
236  236  2    33.86273718153188        101.94235649812886       11.081138669036534       # Si
237  237  2    43.5374857543954         101.94235649812886       5.0                      # Si
238  238  2    43.5374857543954         101.94235649812886       11.081138669036534       # Si
239  239  2    53.2127929155137         101.94235649812886       5.0                      # Si
240  240  2    53.2127929155137         101.94235649812886       11.081138669036534       # Si
241  241  2    62.88754148837722        101.94235649812886       5.0                      # Si
242  242  2    62.88754148837722        101.94235649812886       11.081138669036534       # Si
243  243  2    72.56284864949552        101.94235649812886       5.0                      # Si
244  244  2    72.56284864949552        101.94235649812886       11.081138669036534       # Si
245  245  2    82.23759722235903        107.52823904597153       5.0                      # Si
246  246  2    82.23759722235903        107.52823904597153       11.081138669036534       # Si
247  247  2    91.91290438347733        107.52823904597153       5.0                      # Si
248  248  2    91.91290438347733        107.52823904597153       11.081138669036534       # Si
249  249  2    101.58765295634085       107.52823904597153       5.0                      # Si
250  250  2    101.58765295634085       107.52823904597153       11.081138669036534       # Si
251  251  2    111.26296011745916       107.52823904597153       5.0                      # Si
252  252  2    111.26296011745916       107.52823904597153       11.081138669036534       # Si
253  253  2    120.93770869032268       107.52823904597153       5.0                      # Si
254  254  2    120.93770869032268       107.52823904597153       11.081138669036534       # Si
255  255  2    130.61301585144096       107.52823904597153       5.0                      # Si
256  256  2    130.61301585144096       107.52823904597153       11.081138669036534       # Si
257  257  2    140.28776442430447       107.52823904597153       5.0                      # Si
258  258  2    140.28776442430447       107.52823904597153       11.081138669036534       # Si
259  259  2    149.96307158542282       107.52823904597153       5.0                      # Si
260  260  2    149.96307158542282       107.52823904597153       11.081138669036534       # Si
261  261  2    4.837374286431759        107.52823904597153       5.0                      # Si
262  262  2    4.837374286431759        107.52823904597153       11.081138669036534       # Si
263  263  2    14.51268144755006        107.52823904597153       5.0                      # Si
264  264  2    14.51268144755006        107.52823904597153       11.081138669036534       # Si
265  265  2    24.187430020413576       107.52823904597153       5.0                      # Si
266  266  2    24.187430020413576       107.52823904597153       11.081138669036534       # Si
267  267  2    33.86273718153188        107.52823904597153       5.0                      # Si
268  268  2    33.86273718153188        107.52823904597153       11.081138669036534       # Si
269  269  2    43.5374857543954         107.52823904597153       5.0                      # Si
270  270  2    43.5374857543954         107.52823904597153       11.081138669036534       # Si
271  271  2    53.2127929155137         107.52823904597153       5.0                      # Si
272  272  2    53.2127929155137         107.52823904597153       11.081138669036534       # Si
273  273  2    62.88754148837722        107.52823904597153       5.0                      # Si
274  274  2    62.88754148837722        107.52823904597153       11.081138669036534       # Si
275  275  2    72.56284864949552        107.52823904597153       5.0                      # Si
276  276  2    72.56284864949552        107.52823904597153       11.081138669036534       # Si
277  277  2    77.40022293592727        110.32118031989289       5.0                      # Si
278  278  2    77.40022293592727        110.32118031989289       11.081138669036534       # Si
279  279  2    87.07553009704557        110.32118031989289       5.0                      # Si
280  280  2    87.07553009704557        110.32118031989289       11.081138669036534       # Si
281  281  2    96.7502786699091         110.32118031989289       5.0                      # Si
282  282  2    96.7502786699091         110.32118031989289       11.081138669036534       # Si
283  283  2    106.4255858310274        110.32118031989289       5.0                      # Si
284  284  2    106.4255858310274        110.32118031989289       11.081138669036534       # Si
285  285  2    116.10033440389091       110.32118031989289       5.0                      # Si
286  286  2    116.10033440389091       110.32118031989289       11.081138669036534       # Si
287  287  2    125.77564156500921       110.32118031989289       5.0                      # Si
288  288  2    125.77564156500921       110.32118031989289       11.081138669036534       # Si
289  289  2    135.45039013787272       110.32118031989289       5.0                      # Si
290  290  2    135.45039013787272       110.32118031989289       11.081138669036534       # Si
291  291  2    145.12569729899104       110.32118031989289       5.0                      # Si
292  292  2    145.12569729899104       110.32118031989289       11.081138669036534       # Si
293  293  2    154.80044587185455       110.32118031989289       5.0                      # Si
294  294  2    154.80044587185455       110.32118031989289       11.081138669036534       # Si
295  295  2    9.675307161118301        110.32118031989289       5.0                      # Si
296  296  2    9.675307161118301        110.32118031989289       11.081138669036534       # Si
297  297  2    19.35005573398182        110.32118031989289       5.0                      # Si
298  298  2    19.35005573398182        110.32118031989289       11.081138669036534       # Si
299  299  2    29.02536289510012        110.32118031989289       5.0                      # Si
300  300  2    29.02536289510012        110.32118031989289       11.081138669036534       # Si
301  301  2    38.70011146796364        110.32118031989289       5.0                      # Si
302  302  2    38.70011146796364        110.32118031989289       11.081138669036534       # Si
303  303  2    48.375418629081935       110.32118031989289       5.0                      # Si
304  304  2    48.375418629081935       110.32118031989289       11.081138669036534       # Si
305  305  2    58.050167201945456       110.32118031989289       5.0                      # Si
306  306  2    58.050167201945456       110.32118031989289       11.081138669036534       # Si
307  307  2    67.72547436306375        110.32118031989289       5.0                      # Si
308  308  2    67.72547436306375        110.32118031989289       11.081138669036534       # Si
309  309  2    87.07553009704557        115.90706286773556       5.0                      # Si
310  310  2    87.07553009704557        115.90706286773556       11.081138669036534       # Si
311  311  2    96.7502786699091         115.90706286773556       5.0                      # Si