DATA FILE Produced from netmc results (cf David Morley)
1296 atoms
4320 bonds
0 angles
0 dihedrals
0 impropers
2 atom types
0 bond types
2 bond types
0 angle types
0 dihedral types
0 improper types
0.00000 128.0332309602255 xlo xhi
0.00000 114.33168981800502 ylo yhi
0.0000 200.0000 zlo zhi

# Pair Coeffs
#
# 1  O
# 2  Si

# Bond Coeffs
# 
# 1  O-O
# 2  Si-O
# 3  O-O rep
# 4  Si-Si rep

 Masses

1 28.10000 # O 
2 32.01000 # Si

 Atoms # molecular

1    1    1    112.02886917016816       65.10554562027149        8.040569334518267        # O
2    2    1    122.69860793831157       65.10554562027149        8.040569334518267        # O
3    3    1    5.33456138837432         65.10554562027149        8.040569334518267        # O
4    4    1    16.00430015651774        65.10554562027149        8.040569334518267        # O
5    5    1    106.69430778179384       68.28142588184565        8.040569334518267        # O
6    6    1    117.36404654993724       68.28142588184565        8.040569334518267        # O
7    7    1    128.03316932668588       68.28142588184565        8.040569334518267        # O
8    8    1    10.66973876814342        68.28142588184565        8.040569334518267        # O
9    9    1    21.33886154489206        68.28142588184565        8.040569334518267        # O
10   10   1    106.69430778179384       74.633186404994          8.040569334518267        # O
11   11   1    117.36404654993724       74.633186404994          8.040569334518267        # O
12   12   1    128.03316932668588       74.633186404994          8.040569334518267        # O
13   13   1    10.66973876814342        74.633186404994          8.040569334518267        # O
14   14   1    21.33886154489206        74.633186404994          8.040569334518267        # O
15   15   1    101.35974639341951       77.80906672390171        8.040569334518267        # O
16   16   1    112.02886917016816       77.80906672390171        8.040569334518267        # O
17   17   1    122.69860793831157       77.80906672390171        8.040569334518267        # O
18   18   1    5.33456138837432         77.80906672390171        8.040569334518267        # O
19   19   1    16.00430015651774        77.80906672390171        8.040569334518267        # O
20   20   1    26.67342293326638        77.80906672390171        8.040569334518267        # O
21   21   1    90.6900076252761         84.16082724705007        8.040569334518267        # O
22   22   1    101.35974639341951       84.16082724705007        8.040569334518267        # O
23   23   1    112.02886917016816       84.16082724705007        8.040569334518267        # O
24   24   1    122.69860793831157       84.16082724705007        8.040569334518267        # O
25   25   1    5.33456138837432         84.16082724705007        8.040569334518267        # O
26   26   1    16.00430015651774        84.16082724705007        8.040569334518267        # O
27   27   1    26.67342293326638        84.16082724705007        8.040569334518267        # O
28   28   1    37.3431617014098         84.16082724705007        8.040569334518267        # O
29   29   1    85.35544623690177        87.33670750862423        8.040569334518267        # O
30   30   1    96.0251850050452         87.33670750862423        8.040569334518267        # O
31   31   1    106.69430778179384       87.33670750862423        8.040569334518267        # O
32   32   1    117.36404654993724       87.33670750862423        8.040569334518267        # O
33   33   1    128.03316932668588       87.33670750862423        8.040569334518267        # O
34   34   1    10.66973876814342        87.33670750862423        8.040569334518267        # O
35   35   1    21.33886154489206        87.33670750862423        8.040569334518267        # O
36   36   1    32.00860031303548        87.33670750862423        8.040569334518267        # O
37   37   1    42.67772308978412        87.33670750862423        8.040569334518267        # O
38   38   1    74.68632346015313        93.68846808910612        8.040569334518267        # O
39   39   1    85.35544623690177        93.68846808910612        8.040569334518267        # O
40   40   1    96.0251850050452         93.68846808910612        8.040569334518267        # O
41   41   1    106.69430778179384       93.68846808910612        8.040569334518267        # O
42   42   1    117.36404654993724       93.68846808910612        8.040569334518267        # O
43   43   1    128.03316932668588       93.68846808910612        8.040569334518267        # O
44   44   1    10.66973876814342        93.68846808910612        8.040569334518267        # O
45   45   1    21.33886154489206        93.68846808910612        8.040569334518267        # O
46   46   1    32.00860031303548        93.68846808910612        8.040569334518267        # O
47   47   1    42.67772308978412        93.68846808910612        8.040569334518267        # O
48   48   1    53.347461915261064       93.68846808910612        8.040569334518267        # O
49   49   1    69.35114608038403        96.86434835068029        8.040569334518267        # O
50   50   1    80.02088484852744        96.86434835068029        8.040569334518267        # O
51   51   1    90.6900076252761         96.86434835068029        8.040569334518267        # O
52   52   1    101.35974639341951       96.86434835068029        8.040569334518267        # O
53   53   1    112.02886917016816       96.86434835068029        8.040569334518267        # O
54   54   1    122.69860793831157       96.86434835068029        8.040569334518267        # O
55   55   1    5.33456138837432         96.86434835068029        8.040569334518267        # O
56   56   1    16.00430015651774        96.86434835068029        8.040569334518267        # O
57   57   1    26.67342293326638        96.86434835068029        8.040569334518267        # O
58   58   1    37.3431617014098         96.86434835068029        8.040569334518267        # O
59   59   1    48.01228447815844        96.86434835068029        8.040569334518267        # O
60   60   1    58.68202330363538        96.86434835068029        8.040569334518267        # O
61   61   1    69.35114608038403        103.21610887382863       8.040569334518267        # O
62   62   1    80.02088484852744        103.21610887382863       8.040569334518267        # O
63   63   1    90.6900076252761         103.21610887382863       8.040569334518267        # O
64   64   1    101.35974639341951       103.21610887382863       8.040569334518267        # O
65   65   1    112.02886917016816       103.21610887382863       8.040569334518267        # O
66   66   1    122.69860793831157       103.21610887382863       8.040569334518267        # O
67   67   1    5.33456138837432         103.21610887382863       8.040569334518267        # O
68   68   1    16.00430015651774        103.21610887382863       8.040569334518267        # O
69   69   1    26.67342293326638        103.21610887382863       8.040569334518267        # O
70   70   1    37.3431617014098         103.21610887382863       8.040569334518267        # O
71   71   1    48.01228447815844        103.21610887382863       8.040569334518267        # O
72   72   1    58.68202330363538        103.21610887382863       8.040569334518267        # O
73   73   1    64.0165846920097         106.39198913540282       8.040569334518267        # O
74   74   1    74.68632346015313        106.39198913540282       8.040569334518267        # O
75   75   1    85.35544623690177        106.39198913540282       8.040569334518267        # O
76   76   1    96.0251850050452         106.39198913540282       8.040569334518267        # O
77   77   1    106.69430778179384       106.39198913540282       8.040569334518267        # O
78   78   1    117.36404654993724       106.39198913540282       8.040569334518267        # O
79   79   1    128.03316932668588       106.39198913540282       8.040569334518267        # O
80   80   1    10.66973876814342        106.39198913540282       8.040569334518267        # O
81   81   1    21.33886154489206        106.39198913540282       8.040569334518267        # O
82   82   1    32.00860031303548        106.39198913540282       8.040569334518267        # O
83   83   1    42.67772308978412        106.39198913540282       8.040569334518267        # O
84   84   1    53.347461915261064       106.39198913540282       8.040569334518267        # O
85   85   1    74.68632346015313        112.7437497158847        8.040569334518267        # O
86   86   1    85.35544623690177        112.7437497158847        8.040569334518267        # O
87   87   1    96.0251850050452         112.7437497158847        8.040569334518267        # O
88   88   1    106.69430778179384       112.7437497158847        8.040569334518267        # O
89   89   1    117.36404654993724       112.7437497158847        8.040569334518267        # O
90   90   1    128.03316932668588       112.7437497158847        8.040569334518267        # O
91   91   1    10.66973876814342        112.7437497158847        8.040569334518267        # O
92   92   1    21.33886154489206        112.7437497158847        8.040569334518267        # O
93   93   1    32.00860031303548        112.7437497158847        8.040569334518267        # O
94   94   1    42.67772308978412        112.7437497158847        8.040569334518267        # O
95   95   1    53.347461915261064       112.7437497158847        8.040569334518267        # O
96   96   1    64.0165846920097         112.7437497158847        8.040569334518267        # O
97   97   1    69.35114608038403        1.5879401594538507       8.040569334518267        # O
98   98   1    80.02088484852744        1.5879401594538507       8.040569334518267        # O
99   99   1    90.6900076252761         1.5879401594538507       8.040569334518267        # O
100  100  1    101.35974639341951       1.5879401594538507       8.040569334518267        # O
101  101  1    112.02886917016816       1.5879401594538507       8.040569334518267        # O
102  102  1    122.69860793831157       1.5879401594538507       8.040569334518267        # O
103  103  1    5.33456138837432         1.5879401594538507       8.040569334518267        # O
104  104  1    16.00430015651774        1.5879401594538507       8.040569334518267        # O
105  105  1    26.67342293326638        1.5879401594538507       8.040569334518267        # O
106  106  1    37.3431617014098         1.5879401594538507       8.040569334518267        # O
107  107  1    48.01228447815844        1.5879401594538507       8.040569334518267        # O
108  108  1    58.68202330363538        1.5879401594538507       8.040569334518267        # O
109  109  1    69.35114608038403        7.939700682602203        8.040569334518267        # O
110  110  1    80.02088484852744        7.939700682602203        8.040569334518267        # O
111  111  1    90.6900076252761         7.939700682602203        8.040569334518267        # O
112  112  1    101.35974639341951       7.939700682602203        8.040569334518267        # O
113  113  1    112.02886917016816       7.939700682602203        8.040569334518267        # O
114  114  1    122.69860793831157       7.939700682602203        8.040569334518267        # O
115  115  1    5.33456138837432         7.939700682602203        8.040569334518267        # O
116  116  1    16.00430015651774        7.939700682602203        8.040569334518267        # O
117  117  1    26.67342293326638        7.939700682602203        8.040569334518267        # O
118  118  1    37.3431617014098         7.939700682602203        8.040569334518267        # O
119  119  1    48.01228447815844        7.939700682602203        8.040569334518267        # O
120  120  1    58.68202330363538        7.939700682602203        8.040569334518267        # O
121  121  1    64.0165846920097         11.11558094417638        8.040569334518267        # O
122  122  1    74.68632346015313        11.11558094417638        8.040569334518267        # O
123  123  1    85.35544623690177        11.11558094417638        8.040569334518267        # O
124  124  1    96.0251850050452         11.11558094417638        8.040569334518267        # O
125  125  1    106.69430778179384       11.11558094417638        8.040569334518267        # O
126  126  1    117.36404654993724       11.11558094417638        8.040569334518267        # O
127  127  1    128.03316932668588       11.11558094417638        8.040569334518267        # O
128  128  1    10.66973876814342        11.11558094417638        8.040569334518267        # O
129  129  1    21.33886154489206        11.11558094417638        8.040569334518267        # O
130  130  1    32.00860031303548        11.11558094417638        8.040569334518267        # O
131  131  1    42.67772308978412        11.11558094417638        8.040569334518267        # O
132  132  1    53.347461915261064       11.11558094417638        8.040569334518267        # O
133  133  1    74.68632346015313        17.467341524658256       8.040569334518267        # O
134  134  1    85.35544623690177        17.467341524658256       8.040569334518267        # O
135  135  1    96.0251850050452         17.467341524658256       8.040569334518267        # O
136  136  1    106.69430778179384       17.467341524658256       8.040569334518267        # O
137  137  1    117.36404654993724       17.467341524658256       8.040569334518267        # O
138  138  1    128.03316932668588       17.467341524658256       8.040569334518267        # O
139  139  1    10.66973876814342        17.467341524658256       8.040569334518267        # O
140  140  1    21.33886154489206        17.467341524658256       8.040569334518267        # O
141  141  1    32.00860031303548        17.467341524658256       8.040569334518267        # O
142  142  1    42.67772308978412        17.467341524658256       8.040569334518267        # O
143  143  1    53.347461915261064       17.467341524658256       8.040569334518267        # O
144  144  1    64.0165846920097         17.467341524658256       8.040569334518267        # O
145  145  1    69.35114608038403        20.64322178623243        8.040569334518267        # O
146  146  1    80.02088484852744        20.64322178623243        8.040569334518267        # O
147  147  1    90.6900076252761         20.64322178623243        8.040569334518267        # O
148  148  1    101.35974639341951       20.64322178623243        8.040569334518267        # O
149  149  1    112.02886917016816       20.64322178623243        8.040569334518267        # O
150  150  1    122.69860793831157       20.64322178623243        8.040569334518267        # O
151  151  1    5.33456138837432         20.64322178623243        8.040569334518267        # O
152  152  1    16.00430015651774        20.64322178623243        8.040569334518267        # O
153  153  1    26.67342293326638        20.64322178623243        8.040569334518267        # O
154  154  1    37.3431617014098         20.64322178623243        8.040569334518267        # O
155  155  1    48.01228447815844        20.64322178623243        8.040569334518267        # O
156  156  1    58.68202330363538        20.64322178623243        8.040569334518267        # O
157  157  1    69.35114608038403        26.994982309380788       8.040569334518267        # O
158  158  1    80.02088484852744        26.994982309380788       8.040569334518267        # O
159  159  1    90.6900076252761         26.994982309380788       8.040569334518267        # O
160  160  1    101.35974639341951       26.994982309380788       8.040569334518267        # O
161  161  1    112.02886917016816       26.994982309380788       8.040569334518267        # O
162  162  1    122.69860793831157       26.994982309380788       8.040569334518267        # O
163  163  1    5.33456138837432         26.994982309380788       8.040569334518267        # O
164  164  1    16.00430015651774        26.994982309380788       8.040569334518267        # O
165  165  1    26.67342293326638        26.994982309380788       8.040569334518267        # O
166  166  1    37.3431617014098         26.994982309380788       8.040569334518267        # O
167  167  1    48.01228447815844        26.994982309380788       8.040569334518267        # O
168  168  1    58.68202330363538        26.994982309380788       8.040569334518267        # O
169  169  1    74.68632346015313        30.170862570954963       8.040569334518267        # O
170  170  1    85.35544623690177        30.170862570954963       8.040569334518267        # O
171  171  1    96.0251850050452         30.170862570954963       8.040569334518267        # O
172  172  1    106.69430778179384       30.170862570954963       8.040569334518267        # O
173  173  1    117.36404654993724       30.170862570954963       8.040569334518267        # O
174  174  1    128.03316932668588       30.170862570954963       8.040569334518267        # O
175  175  1    10.66973876814342        30.170862570954963       8.040569334518267        # O
176  176  1    21.33886154489206        30.170862570954963       8.040569334518267        # O
177  177  1    32.00860031303548        30.170862570954963       8.040569334518267        # O
178  178  1    42.67772308978412        30.170862570954963       8.040569334518267        # O
179  179  1    53.347461915261064       30.170862570954963       8.040569334518267        # O
180  180  1    85.35544623690177        36.52262315143684        8.040569334518267        # O
181  181  1    96.0251850050452         36.52262315143684        8.040569334518267        # O
182  182  1    106.69430778179384       36.52262315143684        8.040569334518267        # O
183  183  1    117.36404654993724       36.52262315143684        8.040569334518267        # O
184  184  1    128.03316932668588       36.52262315143684        8.040569334518267        # O
185  185  1    10.66973876814342        36.52262315143684        8.040569334518267        # O
186  186  1    21.33886154489206        36.52262315143684        8.040569334518267        # O
187  187  1    32.00860031303548        36.52262315143684        8.040569334518267        # O
188  188  1    42.67772308978412        36.52262315143684        8.040569334518267        # O
189  189  1    90.6900076252761         39.69850341301101        8.040569334518267        # O
190  190  1    101.35974639341951       39.69850341301101        8.040569334518267        # O
191  191  1    112.02886917016816       39.69850341301101        8.040569334518267        # O
192  192  1    122.69860793831157       39.69850341301101        8.040569334518267        # O
193  193  1    5.33456138837432         39.69850341301101        8.040569334518267        # O
194  194  1    16.00430015651774        39.69850341301101        8.040569334518267        # O
195  195  1    26.67342293326638        39.69850341301101        8.040569334518267        # O
196  196  1    37.3431617014098         39.69850341301101        8.040569334518267        # O
197  197  1    101.35974639341951       46.05026393615937        8.040569334518267        # O
198  198  1    112.02886917016816       46.05026393615937        8.040569334518267        # O
199  199  1    122.69860793831157       46.05026393615937        8.040569334518267        # O
200  200  1    5.33456138837432         46.05026393615937        8.040569334518267        # O
201  201  1    16.00430015651774        46.05026393615937        8.040569334518267        # O
202  202  1    26.67342293326638        46.05026393615937        8.040569334518267        # O
203  203  1    106.69430778179384       49.22614425506707        8.040569334518267        # O
204  204  1    117.36404654993724       49.22614425506707        8.040569334518267        # O
205  205  1    128.03316932668588       49.22614425506707        8.040569334518267        # O
206  206  1    10.66973876814342        49.22614425506707        8.040569334518267        # O
207  207  1    21.33886154489206        49.22614425506707        8.040569334518267        # O
208  208  1    106.69430778179384       55.57790477821543        8.040569334518267        # O
209  209  1    117.36404654993724       55.57790477821543        8.040569334518267        # O
210  210  1    128.03316932668588       55.57790477821543        8.040569334518267        # O
211  211  1    10.66973876814342        55.57790477821543        8.040569334518267        # O
212  212  1    21.33886154489206        55.57790477821543        8.040569334518267        # O
213  213  1    112.02886917016816       58.7537850397896         8.040569334518267        # O
214  214  1    122.69860793831157       58.7537850397896         8.040569334518267        # O
215  215  1    5.33456138837432         58.7537850397896         8.040569334518267        # O
216  216  1    16.00430015651774        58.7537850397896         8.040569334518267        # O
217  217  1    109.361588475981         66.69348575105857        3.98503710016194         # O
218  218  1    109.361588475981         66.69348575105857        12.096101568874595       # O
219  219  1    114.4464578600527        67.1264984529508         3.98503710016194         # O
220  220  1    114.4464578600527        67.1264984529508         12.096101568874595       # O
221  221  1    112.52886917016816       61.929665330030545       3.98503710016194         # O
222  222  1    112.52886917016816       61.929665330030545       12.096101568874595       # O
223  223  1    120.03132724412441       66.69348575105857        3.98503710016194         # O
224  224  1    120.03132724412441       66.69348575105857        12.096101568874595       # O
225  225  1    125.11588863249872       67.1264984529508         3.98503710016194         # O
226  226  1    125.11588863249872       67.1264984529508         12.096101568874595       # O
227  227  1    123.19860793831157       61.929665330030545       3.98503710016194         # O
228  228  1    123.19860793831157       61.929665330030545       12.096101568874595       # O
229  229  1    2.6672498774173494       66.69348575105857        3.98503710016194         # O
230  230  1    2.6672498774173494       66.69348575105857        12.096101568874595       # O
231  231  1    7.75215007825887         67.1264984529508         3.98503710016194         # O
232  232  1    7.75215007825887         67.1264984529508         12.096101568874595       # O
233  233  1    5.83456138837432         61.929665330030545       3.98503710016194         # O
234  234  1    5.83456138837432         61.929665330030545       12.096101568874595       # O
235  235  1    13.33701946233058        66.69348575105857        3.98503710016194         # O
236  236  1    13.33701946233058        66.69348575105857        12.096101568874595       # O
237  237  1    18.4215808507049         67.1264984529508         3.98503710016194         # O
238  238  1    18.4215808507049         67.1264984529508         12.096101568874595       # O
239  239  1    16.50430015651774        61.929665330030545       3.98503710016194         # O
240  240  1    16.50430015651774        61.929665330030545       12.096101568874595       # O
241  241  1    107.19430778179384       71.45730614341983        3.98503710016194         # O
242  242  1    107.19430778179384       71.45730614341983        12.096101568874595       # O
243  243  1    107.19430778179384       61.92966533003054        3.98503710016194         # O
244  244  1    107.19430778179384       61.92966533003054        12.096101568874595       # O
245  245  1    117.86404654993724       71.45730614341983        3.98503710016194         # O
246  246  1    117.86404654993724       71.45730614341983        12.096101568874595       # O
247  247  1    0.49993836646038403      71.45730614341983        3.98503710016194         # O
248  248  1    0.49993836646038403      71.45730614341983        12.096101568874595       # O
249  249  1    11.16973876814342        71.45730614341983        3.98503710016194         # O
250  250  1    11.16973876814342        71.45730614341983        12.096101568874595       # O
251  251  1    21.83886154489206        71.45730614341983        3.98503710016194         # O
252  252  1    21.83886154489206        71.45730614341983        12.096101568874595       # O
253  253  1    21.83886154489206        61.92966533003054        3.98503710016194         # O
254  254  1    21.83886154489206        61.92966533003054        12.096101568874595       # O
255  255  1    104.02702708760668       76.22112656444786        3.98503710016194         # O
256  256  1    104.02702708760668       76.22112656444786        12.096101568874595       # O
257  257  1    109.111588475981         76.65413926634008        3.98503710016194         # O
258  258  1    109.111588475981         76.65413926634008        12.096101568874595       # O
259  259  1    114.6964578600527        76.22112656444786        3.98503710016194         # O
260  260  1    114.6964578600527        76.22112656444786        12.096101568874595       # O
261  261  1    119.78132724412441       76.65413926634008        3.98503710016194         # O
262  262  1    119.78132724412441       76.65413926634008        12.096101568874595       # O
263  263  1    125.36588863249872       76.22112656444786        3.98503710016194         # O
264  264  1    125.36588863249872       76.22112656444786        12.096101568874595       # O
265  265  1    2.417249877417362        76.65413926634008        3.98503710016194         # O
266  266  1    2.417249877417362        76.65413926634008        12.096101568874595       # O
267  267  1    8.00215007825887         76.22112656444786        3.98503710016194         # O
268  268  1    8.00215007825887         76.22112656444786        12.096101568874595       # O
269  269  1    13.08701946233058        76.65413926634008        3.98503710016194         # O
270  270  1    13.08701946233058        76.65413926634008        12.096101568874595       # O
271  271  1    18.6715808507049         76.22112656444786        3.98503710016194         # O
272  272  1    18.6715808507049         76.22112656444786        12.096101568874595       # O
273  273  1    23.75614223907922        76.65413926634008        3.98503710016194         # O
274  274  1    23.75614223907922        76.65413926634008        12.096101568874595       # O
275  275  1    101.85974639341951       80.98494698547589        3.98503710016194         # O
276  276  1    101.85974639341951       80.98494698547589        12.096101568874595       # O
277  277  1    96.0248770093478         80.98494698547589        3.98503710016194         # O
278  278  1    96.0248770093478         80.98494698547589        12.096101568874595       # O
279  279  1    112.52886917016816       80.98494698547589        3.98503710016194         # O
280  280  1    112.52886917016816       80.98494698547589        12.096101568874595       # O
281  281  1    123.19860793831157       80.98494698547589        3.98503710016194         # O
282  282  1    123.19860793831157       80.98494698547589        12.096101568874595       # O
283  283  1    5.83456138837432         80.98494698547589        3.98503710016194         # O
284  284  1    5.83456138837432         80.98494698547589        12.096101568874595       # O
285  285  1    16.50430015651774        80.98494698547589        3.98503710016194         # O
286  286  1    16.50430015651774        80.98494698547589        12.096101568874595       # O
287  287  1    27.17342293326638        80.98494698547589        3.98503710016194         # O
288  288  1    27.17342293326638        80.98494698547589        12.096101568874595       # O
289  289  1    31.75829231733809        81.41795968736811        3.98503710016194         # O
290  290  1    31.75829231733809        81.41795968736811        12.096101568874595       # O
291  291  1    88.02272693108893        85.74876737783714        3.98503710016194         # O
292  292  1    88.02272693108893        85.74876737783714        12.096101568874595       # O
293  293  1    93.10759631516065        86.18178007972936        3.98503710016194         # O
294  294  1    93.10759631516065        86.18178007972936        12.096101568874595       # O
295  295  1    98.69246569923236        85.74876737783714        3.98503710016194         # O
296  296  1    98.69246569923236        85.74876737783714        12.096101568874595       # O
297  297  1    103.77702708760668       86.18178007972936        3.98503710016194         # O
298  298  1    103.77702708760668       86.18178007972936        12.096101568874595       # O
299  299  1    109.361588475981         85.74876737783714        3.98503710016194         # O
300  300  1    109.361588475981         85.74876737783714        12.096101568874595       # O
301  301  1    114.4464578600527        86.18178007972936        3.98503710016194         # O
302  302  1    114.4464578600527        86.18178007972936        12.096101568874595       # O
303  303  1    120.03132724412441       85.74876737783714        3.98503710016194         # O
304  304  1    120.03132724412441       85.74876737783714        12.096101568874595       # O
305  305  1    125.11588863249872       86.18178007972936        3.98503710016194         # O
306  306  1    125.11588863249872       86.18178007972936        12.096101568874595       # O
307  307  1    2.6672498774173494       85.74876737783714        3.98503710016194         # O
308  308  1    2.6672498774173494       85.74876737783714        12.096101568874595       # O
309  309  1    7.75215007825887         86.18178007972936        3.98503710016194         # O
310  310  1    7.75215007825887         86.18178007972936        12.096101568874595       # O
311  311  1    13.33701946233058        85.74876737783714        3.98503710016194         # O
312  312  1    13.33701946233058        85.74876737783714        12.096101568874595       # O
313  313  1    18.4215808507049         86.18178007972936        3.98503710016194         # O
314  314  1    18.4215808507049         86.18178007972936        12.096101568874595       # O