DATA FILE Produced from netmc results (cf David Morley)
570 atoms
1368 bonds
0 angles
0 dihedrals
0 impropers
2 atom types
2 bond types
0 angle types
0 dihedral types
0 improper types
0.00000 126.58094840008985 xlo xhi
0.00000 110.0560743974459 ylo yhi

# Pair Coeffs
#
# 1  O
# 2  Si

# Bond Coeffs
# 
# 1  O-O
# 2  Si-O
# 3  O-O rep
# 4  Si-Si rep

 Masses

1 28.10000 # O 
2 32.01000 # Si

 Atoms # molecular

1    1    2    100.21002150314148       62.67082013900853        5.0                      # Si
2    2    2    110.75812427355731       62.67082013900853        5.0                      # Si
3    3    2    121.3068360980114        62.67082013900853        5.0                      # Si
4    4    2    5.274051413874689        62.67082013900853        5.0                      # Si
5    5    2    15.822763180995247       62.67082013900853        5.0                      # Si
6    6    2    26.370865951411098       62.67082013900853        5.0                      # Si
7    7    2    36.919577775865186       62.67082013900853        5.0                      # Si
8    8    2    105.48407291701615       65.72793331512277        5.0                      # Si
9    9    2    116.0327846841367        65.72793331512277        5.0                      # Si
10   10   2    126.58088751188608       65.72793331512277        5.0                      # Si
11   11   2    10.548711824454083       65.72793331512277        5.0                      # Si
12   12   2    21.096814594869933       65.72793331512277        5.0                      # Si
13   13   2    31.645526361990495       65.72793331512277        5.0                      # Si
14   14   2    94.9359701466003         71.84215966735124        5.0                      # Si
15   15   2    105.48407291701615       71.84215966735124        5.0                      # Si
16   16   2    116.0327846841367        71.84215966735124        5.0                      # Si
17   17   2    126.58088751188608       71.84215966735124        5.0                      # Si
18   18   2    10.548711824454083       71.84215966735124        5.0                      # Si
19   19   2    21.096814594869933       71.84215966735124        5.0                      # Si
20   20   2    31.645526361990495       71.84215966735124        5.0                      # Si
21   21   2    42.193629189739866       71.84215966735124        5.0                      # Si
22   22   2    89.66130973602091        74.89927284346547        5.0                      # Si
23   23   2    100.21002150314148       74.89927284346547        5.0                      # Si
24   24   2    110.75812427355731       74.89927284346547        5.0                      # Si
25   25   2    121.3068360980114        74.89927284346547        5.0                      # Si
26   26   2    5.274051413874689        74.89927284346547        5.0                      # Si
27   27   2    15.822763180995247       74.89927284346547        5.0                      # Si
28   28   2    26.370865951411098       74.89927284346547        5.0                      # Si
29   29   2    36.919577775865186       74.89927284346547        5.0                      # Si
30   30   2    47.46768054628104        74.89927284346547        5.0                      # Si
31   31   2    79.11320690827152        81.01349919569392        5.0                      # Si
32   32   2    89.66130973602091        81.01349919569392        5.0                      # Si
33   33   2    100.21002150314148       81.01349919569392        5.0                      # Si
34   34   2    110.75812427355731       81.01349919569392        5.0                      # Si
35   35   2    121.3068360980114        81.01349919569392        5.0                      # Si
36   36   2    5.274051413874689        81.01349919569392        5.0                      # Si
37   37   2    15.822763180995247       81.01349919569392        5.0                      # Si
38   38   2    26.370865951411098       81.01349919569392        5.0                      # Si
39   39   2    36.919577775865186       81.01349919569392        5.0                      # Si
40   40   2    47.46768054628104        81.01349919569392        5.0                      # Si
41   41   2    58.01639237073512        81.01349919569392        5.0                      # Si
42   42   2    63.290443727276276       84.07061242914169        5.0                      # Si
43   43   2    73.83915555173037        84.07061242914169        5.0                      # Si
44   44   2    84.38725832214622        84.07061242914169        5.0                      # Si
45   45   2    94.9359701466003         84.07061242914169        5.0                      # Si
46   46   2    105.48407291701615       84.07061242914169        5.0                      # Si
47   47   2    116.0327846841367        84.07061242914169        5.0                      # Si
48   48   2    126.58088751188608       84.07061242914169        5.0                      # Si
49   49   2    10.548711824454083       84.07061242914169        5.0                      # Si
50   50   2    21.096814594869933       84.07061242914169        5.0                      # Si
51   51   2    31.645526361990495       84.07061242914169        5.0                      # Si
52   52   2    42.193629189739866       84.07061242914169        5.0                      # Si
53   53   2    52.742340956860424       84.07061242914169        5.0                      # Si
54   54   2    73.83915555173037        90.18483878137016        5.0                      # Si
55   55   2    84.38725832214622        90.18483878137016        5.0                      # Si
56   56   2    94.9359701466003         90.18483878137016        5.0                      # Si
57   57   2    105.48407291701615       90.18483878137016        5.0                      # Si
58   58   2    116.0327846841367        90.18483878137016        5.0                      # Si
59   59   2    126.58088751188608       90.18483878137016        5.0                      # Si
60   60   2    10.548711824454083       90.18483878137016        5.0                      # Si
61   61   2    21.096814594869933       90.18483878137016        5.0                      # Si
62   62   2    31.645526361990495       90.18483878137016        5.0                      # Si
63   63   2    42.193629189739866       90.18483878137016        5.0                      # Si
64   64   2    52.742340956860424       90.18483878137016        5.0                      # Si
65   65   2    63.290443727276276       90.18483878137016        5.0                      # Si
66   66   2    68.56449514115097        93.2419519574844         5.0                      # Si
67   67   2    79.11320690827152        93.2419519574844         5.0                      # Si
68   68   2    89.66130973602091        93.2419519574844         5.0                      # Si
69   69   2    100.21002150314148       93.2419519574844         5.0                      # Si
70   70   2    110.75812427355731       93.2419519574844         5.0                      # Si
71   71   2    121.3068360980114        93.2419519574844         5.0                      # Si
72   72   2    5.274051413874689        93.2419519574844         5.0                      # Si
73   73   2    15.822763180995247       93.2419519574844         5.0                      # Si
74   74   2    26.370865951411098       93.2419519574844         5.0                      # Si
75   75   2    36.919577775865186       93.2419519574844         5.0                      # Si
76   76   2    47.46768054628104        93.2419519574844         5.0                      # Si
77   77   2    58.01639237073512        93.2419519574844         5.0                      # Si
78   78   2    68.56449514115097        99.35617830971286        5.0                      # Si
79   79   2    79.11320690827152        99.35617830971286        5.0                      # Si
80   80   2    89.66130973602091        99.35617830971286        5.0                      # Si
81   81   2    100.21002150314148       99.35617830971286        5.0                      # Si
82   82   2    110.75812427355731       99.35617830971286        5.0                      # Si
83   83   2    121.3068360980114        99.35617830971286        5.0                      # Si
84   84   2    5.274051413874689        99.35617830971286        5.0                      # Si
85   85   2    15.822763180995247       99.35617830971286        5.0                      # Si
86   86   2    26.370865951411098       99.35617830971286        5.0                      # Si
87   87   2    36.919577775865186       99.35617830971286        5.0                      # Si
88   88   2    47.46768054628104        99.35617830971286        5.0                      # Si
89   89   2    58.01639237073512        99.35617830971286        5.0                      # Si
90   90   2    63.290443727276276       102.41329148582709       5.0                      # Si
91   91   2    73.83915555173037        102.41329148582709       5.0                      # Si
92   92   2    84.38725832214622        102.41329148582709       5.0                      # Si
93   93   2    94.9359701466003         102.41329148582709       5.0                      # Si
94   94   2    105.48407291701615       102.41329148582709       5.0                      # Si
95   95   2    116.0327846841367        102.41329148582709       5.0                      # Si
96   96   2    126.58088751188608       102.41329148582709       5.0                      # Si
97   97   2    10.548711824454083       102.41329148582709       5.0                      # Si
98   98   2    21.096814594869933       102.41329148582709       5.0                      # Si
99   99   2    31.645526361990495       102.41329148582709       5.0                      # Si
100  100  2    42.193629189739866       102.41329148582709       5.0                      # Si
101  101  2    52.742340956860424       102.41329148582709       5.0                      # Si
102  102  2    73.83915555173037        108.52751783805554       5.0                      # Si
103  103  2    84.38725832214622        108.52751783805554       5.0                      # Si
104  104  2    94.9359701466003         108.52751783805554       5.0                      # Si
105  105  2    105.48407291701615       108.52751783805554       5.0                      # Si
106  106  2    116.0327846841367        108.52751783805554       5.0                      # Si
107  107  2    126.58088751188608       108.52751783805554       5.0                      # Si
108  108  2    10.548711824454083       108.52751783805554       5.0                      # Si
109  109  2    21.096814594869933       108.52751783805554       5.0                      # Si
110  110  2    31.645526361990495       108.52751783805554       5.0                      # Si
111  111  2    42.193629189739866       108.52751783805554       5.0                      # Si
112  112  2    52.742340956860424       108.52751783805554       5.0                      # Si
113  113  2    63.290443727276276       108.52751783805554       5.0                      # Si
114  114  2    68.56449514115097        1.528556616723879        5.0                      # Si
115  115  2    79.11320690827152        1.528556616723879        5.0                      # Si
116  116  2    89.66130973602091        1.528556616723879        5.0                      # Si
117  117  2    100.21002150314148       1.528556616723879        5.0                      # Si
118  118  2    110.75812427355731       1.528556616723879        5.0                      # Si
119  119  2    121.3068360980114        1.528556616723879        5.0                      # Si
120  120  2    5.274051413874689        1.528556616723879        5.0                      # Si
121  121  2    15.822763180995247       1.528556616723879        5.0                      # Si
122  122  2    26.370865951411098       1.528556616723879        5.0                      # Si
123  123  2    36.919577775865186       1.528556616723879        5.0                      # Si
124  124  2    47.46768054628104        1.528556616723879        5.0                      # Si
125  125  2    58.01639237073512        1.528556616723879        5.0                      # Si
126  126  2    68.56449514115097        7.642782968952345        5.0                      # Si
127  127  2    79.11320690827152        7.642782968952345        5.0                      # Si
128  128  2    89.66130973602091        7.642782968952345        5.0                      # Si
129  129  2    100.21002150314148       7.642782968952345        5.0                      # Si
130  130  2    110.75812427355731       7.642782968952345        5.0                      # Si
131  131  2    121.3068360980114        7.642782968952345        5.0                      # Si
132  132  2    5.274051413874689        7.642782968952345        5.0                      # Si
133  133  2    15.822763180995247       7.642782968952345        5.0                      # Si
134  134  2    26.370865951411098       7.642782968952345        5.0                      # Si
135  135  2    36.919577775865186       7.642782968952345        5.0                      # Si
136  136  2    47.46768054628104        7.642782968952345        5.0                      # Si
137  137  2    58.01639237073512        7.642782968952345        5.0                      # Si
138  138  2    63.290443727276276       10.699896145066578       5.0                      # Si
139  139  2    73.83915555173037        10.699896145066578       5.0                      # Si
140  140  2    84.38725832214622        10.699896145066578       5.0                      # Si
141  141  2    94.9359701466003         10.699896145066578       5.0                      # Si
142  142  2    105.48407291701615       10.699896145066578       5.0                      # Si
143  143  2    116.0327846841367        10.699896145066578       5.0                      # Si
144  144  2    126.58088751188608       10.699896145066578       5.0                      # Si
145  145  2    10.548711824454083       10.699896145066578       5.0                      # Si
146  146  2    21.096814594869933       10.699896145066578       5.0                      # Si
147  147  2    31.645526361990495       10.699896145066578       5.0                      # Si
148  148  2    42.193629189739866       10.699896145066578       5.0                      # Si
149  149  2    52.742340956860424       10.699896145066578       5.0                      # Si
150  150  2    73.83915555173037        16.814122497295045       5.0                      # Si
151  151  2    84.38725832214622        16.814122497295045       5.0                      # Si
152  152  2    94.9359701466003         16.814122497295045       5.0                      # Si
153  153  2    105.48407291701615       16.814122497295045       5.0                      # Si
154  154  2    116.0327846841367        16.814122497295045       5.0                      # Si
155  155  2    126.58088751188608       16.814122497295045       5.0                      # Si
156  156  2    10.548711824454083       16.814122497295045       5.0                      # Si
157  157  2    21.096814594869933       16.814122497295045       5.0                      # Si
158  158  2    31.645526361990495       16.814122497295045       5.0                      # Si
159  159  2    42.193629189739866       16.814122497295045       5.0                      # Si
160  160  2    52.742340956860424       16.814122497295045       5.0                      # Si
161  161  2    63.290443727276276       16.814122497295045       5.0                      # Si
162  162  2    79.11320690827152        19.871235673409277       5.0                      # Si
163  163  2    89.66130973602091        19.871235673409277       5.0                      # Si
164  164  2    100.21002150314148       19.871235673409277       5.0                      # Si
165  165  2    110.75812427355731       19.871235673409277       5.0                      # Si
166  166  2    121.3068360980114        19.871235673409277       5.0                      # Si
167  167  2    5.274051413874689        19.871235673409277       5.0                      # Si
168  168  2    15.822763180995247       19.871235673409277       5.0                      # Si
169  169  2    26.370865951411098       19.871235673409277       5.0                      # Si
170  170  2    36.919577775865186       19.871235673409277       5.0                      # Si
171  171  2    47.46768054628104        19.871235673409277       5.0                      # Si
172  172  2    58.01639237073512        19.871235673409277       5.0                      # Si
173  173  2    89.66130973602091        25.985462025637744       5.0                      # Si
174  174  2    100.21002150314148       25.985462025637744       5.0                      # Si
175  175  2    110.75812427355731       25.985462025637744       5.0                      # Si
176  176  2    121.3068360980114        25.985462025637744       5.0                      # Si
177  177  2    5.274051413874689        25.985462025637744       5.0                      # Si
178  178  2    15.822763180995247       25.985462025637744       5.0                      # Si
179  179  2    26.370865951411098       25.985462025637744       5.0                      # Si
180  180  2    36.919577775865186       25.985462025637744       5.0                      # Si
181  181  2    47.46768054628104        25.985462025637744       5.0                      # Si
182  182  2    94.9359701466003         29.042575201751976       5.0                      # Si
183  183  2    105.48407291701615       29.042575201751976       5.0                      # Si
184  184  2    116.0327846841367        29.042575201751976       5.0                      # Si
185  185  2    126.58088751188608       29.042575201751976       5.0                      # Si
186  186  2    10.548711824454083       29.042575201751976       5.0                      # Si
187  187  2    21.096814594869933       29.042575201751976       5.0                      # Si
188  188  2    31.645526361990495       29.042575201751976       5.0                      # Si
189  189  2    42.193629189739866       29.042575201751976       5.0                      # Si
190  190  2    105.48407291701615       35.15680155398044        5.0                      # Si
191  191  2    116.0327846841367        35.15680155398044        5.0                      # Si
192  192  2    126.58088751188608       35.15680155398044        5.0                      # Si
193  193  2    10.548711824454083       35.15680155398044        5.0                      # Si
194  194  2    21.096814594869933       35.15680155398044        5.0                      # Si
195  195  2    31.645526361990495       35.15680155398044        5.0                      # Si
196  196  2    100.21002150314148       38.21391473009467        5.0                      # Si
197  197  2    110.75812427355731       38.21391473009467        5.0                      # Si
198  198  2    121.3068360980114        38.21391473009467        5.0                      # Si
199  199  2    5.274051413874689        38.21391473009467        5.0                      # Si
200  200  2    15.822763180995247       38.21391473009467        5.0                      # Si
201  201  2    26.370865951411098       38.21391473009467        5.0                      # Si
202  202  2    36.919577775865186       38.21391473009467        5.0                      # Si
203  203  2    100.21002150314148       44.32814108232314        5.0                      # Si
204  204  2    110.75812427355731       44.32814108232314        5.0                      # Si
205  205  2    121.3068360980114        44.32814108232314        5.0                      # Si
206  206  2    5.274051413874689        44.32814108232314        5.0                      # Si
207  207  2    15.822763180995247       44.32814108232314        5.0                      # Si
208  208  2    26.370865951411098       44.32814108232314        5.0                      # Si
209  209  2    36.919577775865186       44.32814108232314        5.0                      # Si
210  210  2    105.48407291701615       47.38525425843738        5.0                      # Si
211  211  2    116.0327846841367        47.38525425843738        5.0                      # Si
212  212  2    126.58088751188608       47.38525425843738        5.0                      # Si
213  213  2    10.548711824454083       47.38525425843738        5.0                      # Si
214  214  2    21.096814594869933       47.38525425843738        5.0                      # Si
215  215  2    31.645526361990495       47.38525425843738        5.0                      # Si
216  216  2    105.48407291701615       53.49948061066584        5.0                      # Si
217  217  2    116.0327846841367        53.49948061066584        5.0                      # Si
218  218  2    126.58088751188608       53.49948061066584        5.0                      # Si
219  219  2    10.548711824454083       53.49948061066584        5.0                      # Si
220  220  2    21.096814594869933       53.49948061066584        5.0                      # Si
221  221  2    31.645526361990495       53.49948061066584        5.0                      # Si
222  222  2    100.21002150314148       56.55659378678007        5.0                      # Si
223  223  2    110.75812427355731       56.55659378678007        5.0                      # Si
224  224  2    121.3068360980114        56.55659378678007        5.0                      # Si
225  225  2    5.274051413874689        56.55659378678007        5.0                      # Si
226  226  2    15.822763180995247       56.55659378678007        5.0                      # Si
227  227  2    26.370865951411098       56.55659378678007        5.0                      # Si
228  228  2    36.919577775865186       56.55659378678007        5.0                      # Si
229  229  1    102.59704721007881       64.63238942895788        5.0                      # O
230  230  1    100.71002150314148       59.6137069628943         5.0                      # O
231  231  1    97.57299582487089        67.25648990317988        5.0                      # O
232  232  1    108.12109859528672       64.19937672706565        5.0                      # O
233  233  1    113.145454478847         64.63238942895788        5.0                      # O
234  234  1    111.25812427355731       59.6137069628943         5.0                      # O
235  235  1    118.66981039107405       64.19937672706565        5.0                      # O
236  236  1    123.69386180494874       64.63238942895788        5.0                      # O
237  237  1    121.8068360980114        59.6137069628943         5.0                      # O
238  238  1    2.636995262835457        64.19937672706565        5.0                      # O
239  239  1    7.661381619164386        64.63238942895788        5.0                      # O
240  240  1    5.774051413874689        59.6137069628943         5.0                      # O
241  241  1    13.185737502724665       64.19937672706565        5.0                      # O
242  242  1    18.20978888793259        64.63238942895788        5.0                      # O
243  243  1    16.322763180995246       59.6137069628943         5.0                      # O
244  244  1    23.733840273140515       64.19937672706565        5.0                      # O
245  245  1    28.758196156700798       64.63238942895788        5.0                      # O
246  246  1    26.870865951411098       59.6137069628943         5.0                      # O
247  247  1    34.28255206892784        64.19937672706565        5.0                      # O
248  248  1    37.419577775865186       59.6137069628943         5.0                      # O
249  249  1    39.55660348280253        67.25648990317988        5.0                      # O
250  250  1    105.98407291701615       68.78504649123701        5.0                      # O
251  251  1    116.5327846841367        68.78504649123701        5.0                      # O
252  252  1    0.4999391117962233       68.78504649123701        5.0                      # O
253  253  1    11.048711824454083       68.78504649123701        5.0                      # O
254  254  1    21.596814594869933       68.78504649123701        5.0                      # O
255  255  1    32.14552636199049        68.78504649123701        5.0                      # O
256  256  1    92.2986399413106         73.37071625540835        5.0                      # O
257  257  1    97.32299582487089        73.80372895730058        5.0                      # O
258  258  1    102.84704721007881       73.37071625540835        5.0                      # O
259  259  1    107.87109859528672       73.80372895730058        5.0                      # O
260  260  1    113.395454478847         73.37071625540835        5.0                      # O
261  261  1    118.41981039107405       73.80372895730058        5.0                      # O
262  262  1    123.94386180494874       73.37071625540835        5.0                      # O
263  263  1    2.3869952628354554       73.80372895730058        5.0                      # O
264  264  1    7.911381619164386        73.37071625540835        5.0                      # O
265  265  1    12.935737502724665       73.80372895730058        5.0                      # O
266  266  1    18.45978888793259        73.37071625540835        5.0                      # O
267  267  1    23.483840273140515       73.80372895730058        5.0                      # O
268  268  1    29.008196156700798       73.37071625540835        5.0                      # O
269  269  1    34.03255206892784        73.80372895730058        5.0                      # O
270  270  1    39.55660348280253        73.37071625540835        5.0                      # O
271  271  1    44.580654868010456       73.80372895730058        5.0                      # O
272  272  1    90.16130973602091        77.9563860195797         5.0                      # O
273  273  1    84.38725832214621        77.9563860195797         5.0                      # O
274  274  1    100.71002150314148       77.9563860195797         5.0                      # O
275  275  1    111.25812427355731       77.9563860195797         5.0                      # O
276  276  1    121.8068360980114        77.9563860195797         5.0                      # O
277  277  1    5.774051413874689        77.9563860195797         5.0                      # O
278  278  1    16.322763180995246       77.9563860195797         5.0                      # O
279  279  1    26.870865951411098       77.9563860195797         5.0                      # O
280  280  1    37.419577775865186       77.9563860195797         5.0                      # O
281  281  1    47.96768054628104        77.9563860195797         5.0                      # O
282  282  1    52.49203645850808        78.38939872147192        5.0                      # O
283  283  1    76.47618123000095        82.5420558124178         5.0                      # O
284  284  1    81.50023261520887        82.97506851431002        5.0                      # O
285  285  1    87.02428402908356        82.5420558124178         5.0                      # O
286  286  1    92.0486399413106         82.97506851431002        5.0                      # O
287  287  1    97.57299582487089        82.5420558124178         5.0                      # O
288  288  1    102.59704721007881       82.97506851431002        5.0                      # O
289  289  1    108.12109859528672       82.5420558124178         5.0                      # O
290  290  1    113.145454478847         82.97506851431002        5.0                      # O
291  291  1    118.66981039107405       82.5420558124178         5.0                      # O
292  292  1    123.69386180494874       82.97506851431002        5.0                      # O
293  293  1    2.636995262835457        82.5420558124178         5.0                      # O
294  294  1    7.661381619164386        82.97506851431002        5.0                      # O
295  295  1    13.185737502724665       82.5420558124178         5.0                      # O
296  296  1    18.20978888793259        82.97506851431002        5.0                      # O
297  297  1    23.733840273140515       82.5420558124178         5.0                      # O
298  298  1    28.758196156700798       82.97506851431002        5.0                      # O
299  299  1    34.28255206892784        82.5420558124178         5.0                      # O
300  300  1    39.30660348280253        82.97506851431002        5.0                      # O
301  301  1    44.830654868010456       82.5420558124178         5.0                      # O
302  302  1    49.85501075157073        82.97506851431002        5.0                      # O
303  303  1    55.37936666379777        82.5420558124178         5.0                      # O
304  304  1    60.403418049005694       82.97506851431002        5.0                      # O
305  305  1    63.790443727276276       87.12772560525593        5.0                      # O
306  306  1    68.56479963950332        84.07061242914169        5.0                      # O
307  307  1    74.33915555173037        87.12772560525593        5.0                      # O
308  308  1    84.88725832214622        87.12772560525593        5.0                      # O
309  309  1    95.4359701466003         87.12772560525593        5.0                      # O
310  310  1    105.98407291701615       87.12772560525593        5.0                      # O
311  311  1    116.5327846841367        87.12772560525593        5.0                      # O
312  312  1    0.4999391117962233       87.12772560525593        5.0                      # O