DATA FILE Produced from netmc results (cf David Morley)
1368 atoms
4560 bonds
0 angles
0 dihedrals
0 impropers
2 atom types
0 bond types
2 bond types
0 angle types
0 dihedral types
0 improper types
0.00000 126.58094840008985 xlo xhi
0.00000 110.0560743974459 ylo yhi
0.0000 200.0000 zlo zhi

# Pair Coeffs
#
# 1  O
# 2  Si

# Bond Coeffs
# 
# 1  O-O
# 2  Si-O
# 3  O-O rep
# 4  Si-Si rep

 Masses

1 28.10000 # O 
2 32.01000 # Si

 Atoms # molecular

1    1    1    100.21002150314148       62.67082013900853        8.040569334518267        # O
2    2    1    110.75812427355731       62.67082013900853        8.040569334518267        # O
3    3    1    121.3068360980114        62.67082013900853        8.040569334518267        # O
4    4    1    5.274051413874689        62.67082013900853        8.040569334518267        # O
5    5    1    15.822763180995247       62.67082013900853        8.040569334518267        # O
6    6    1    26.370865951411098       62.67082013900853        8.040569334518267        # O
7    7    1    36.919577775865186       62.67082013900853        8.040569334518267        # O
8    8    1    105.48407291701615       65.72793331512277        8.040569334518267        # O
9    9    1    116.0327846841367        65.72793331512277        8.040569334518267        # O
10   10   1    126.58088751188608       65.72793331512277        8.040569334518267        # O
11   11   1    10.548711824454083       65.72793331512277        8.040569334518267        # O
12   12   1    21.096814594869933       65.72793331512277        8.040569334518267        # O
13   13   1    31.645526361990495       65.72793331512277        8.040569334518267        # O
14   14   1    94.9359701466003         71.84215966735124        8.040569334518267        # O
15   15   1    105.48407291701615       71.84215966735124        8.040569334518267        # O
16   16   1    116.0327846841367        71.84215966735124        8.040569334518267        # O
17   17   1    126.58088751188608       71.84215966735124        8.040569334518267        # O
18   18   1    10.548711824454083       71.84215966735124        8.040569334518267        # O
19   19   1    21.096814594869933       71.84215966735124        8.040569334518267        # O
20   20   1    31.645526361990495       71.84215966735124        8.040569334518267        # O
21   21   1    42.193629189739866       71.84215966735124        8.040569334518267        # O
22   22   1    89.66130973602091        74.89927284346547        8.040569334518267        # O
23   23   1    100.21002150314148       74.89927284346547        8.040569334518267        # O
24   24   1    110.75812427355731       74.89927284346547        8.040569334518267        # O
25   25   1    121.3068360980114        74.89927284346547        8.040569334518267        # O
26   26   1    5.274051413874689        74.89927284346547        8.040569334518267        # O
27   27   1    15.822763180995247       74.89927284346547        8.040569334518267        # O
28   28   1    26.370865951411098       74.89927284346547        8.040569334518267        # O
29   29   1    36.919577775865186       74.89927284346547        8.040569334518267        # O
30   30   1    47.46768054628104        74.89927284346547        8.040569334518267        # O
31   31   1    79.11320690827152        81.01349919569392        8.040569334518267        # O
32   32   1    89.66130973602091        81.01349919569392        8.040569334518267        # O
33   33   1    100.21002150314148       81.01349919569392        8.040569334518267        # O
34   34   1    110.75812427355731       81.01349919569392        8.040569334518267        # O
35   35   1    121.3068360980114        81.01349919569392        8.040569334518267        # O
36   36   1    5.274051413874689        81.01349919569392        8.040569334518267        # O
37   37   1    15.822763180995247       81.01349919569392        8.040569334518267        # O
38   38   1    26.370865951411098       81.01349919569392        8.040569334518267        # O
39   39   1    36.919577775865186       81.01349919569392        8.040569334518267        # O
40   40   1    47.46768054628104        81.01349919569392        8.040569334518267        # O
41   41   1    58.01639237073512        81.01349919569392        8.040569334518267        # O
42   42   1    63.290443727276276       84.07061242914169        8.040569334518267        # O
43   43   1    73.83915555173037        84.07061242914169        8.040569334518267        # O
44   44   1    84.38725832214622        84.07061242914169        8.040569334518267        # O
45   45   1    94.9359701466003         84.07061242914169        8.040569334518267        # O
46   46   1    105.48407291701615       84.07061242914169        8.040569334518267        # O
47   47   1    116.0327846841367        84.07061242914169        8.040569334518267        # O
48   48   1    126.58088751188608       84.07061242914169        8.040569334518267        # O
49   49   1    10.548711824454083       84.07061242914169        8.040569334518267        # O
50   50   1    21.096814594869933       84.07061242914169        8.040569334518267        # O
51   51   1    31.645526361990495       84.07061242914169        8.040569334518267        # O
52   52   1    42.193629189739866       84.07061242914169        8.040569334518267        # O
53   53   1    52.742340956860424       84.07061242914169        8.040569334518267        # O
54   54   1    73.83915555173037        90.18483878137016        8.040569334518267        # O
55   55   1    84.38725832214622        90.18483878137016        8.040569334518267        # O
56   56   1    94.9359701466003         90.18483878137016        8.040569334518267        # O
57   57   1    105.48407291701615       90.18483878137016        8.040569334518267        # O
58   58   1    116.0327846841367        90.18483878137016        8.040569334518267        # O
59   59   1    126.58088751188608       90.18483878137016        8.040569334518267        # O
60   60   1    10.548711824454083       90.18483878137016        8.040569334518267        # O
61   61   1    21.096814594869933       90.18483878137016        8.040569334518267        # O
62   62   1    31.645526361990495       90.18483878137016        8.040569334518267        # O
63   63   1    42.193629189739866       90.18483878137016        8.040569334518267        # O
64   64   1    52.742340956860424       90.18483878137016        8.040569334518267        # O
65   65   1    63.290443727276276       90.18483878137016        8.040569334518267        # O
66   66   1    68.56449514115097        93.2419519574844         8.040569334518267        # O
67   67   1    79.11320690827152        93.2419519574844         8.040569334518267        # O
68   68   1    89.66130973602091        93.2419519574844         8.040569334518267        # O
69   69   1    100.21002150314148       93.2419519574844         8.040569334518267        # O
70   70   1    110.75812427355731       93.2419519574844         8.040569334518267        # O
71   71   1    121.3068360980114        93.2419519574844         8.040569334518267        # O
72   72   1    5.274051413874689        93.2419519574844         8.040569334518267        # O
73   73   1    15.822763180995247       93.2419519574844         8.040569334518267        # O
74   74   1    26.370865951411098       93.2419519574844         8.040569334518267        # O
75   75   1    36.919577775865186       93.2419519574844         8.040569334518267        # O
76   76   1    47.46768054628104        93.2419519574844         8.040569334518267        # O
77   77   1    58.01639237073512        93.2419519574844         8.040569334518267        # O
78   78   1    68.56449514115097        99.35617830971286        8.040569334518267        # O
79   79   1    79.11320690827152        99.35617830971286        8.040569334518267        # O
80   80   1    89.66130973602091        99.35617830971286        8.040569334518267        # O
81   81   1    100.21002150314148       99.35617830971286        8.040569334518267        # O
82   82   1    110.75812427355731       99.35617830971286        8.040569334518267        # O
83   83   1    121.3068360980114        99.35617830971286        8.040569334518267        # O
84   84   1    5.274051413874689        99.35617830971286        8.040569334518267        # O
85   85   1    15.822763180995247       99.35617830971286        8.040569334518267        # O
86   86   1    26.370865951411098       99.35617830971286        8.040569334518267        # O
87   87   1    36.919577775865186       99.35617830971286        8.040569334518267        # O
88   88   1    47.46768054628104        99.35617830971286        8.040569334518267        # O
89   89   1    58.01639237073512        99.35617830971286        8.040569334518267        # O
90   90   1    63.290443727276276       102.41329148582709       8.040569334518267        # O
91   91   1    73.83915555173037        102.41329148582709       8.040569334518267        # O
92   92   1    84.38725832214622        102.41329148582709       8.040569334518267        # O
93   93   1    94.9359701466003         102.41329148582709       8.040569334518267        # O
94   94   1    105.48407291701615       102.41329148582709       8.040569334518267        # O
95   95   1    116.0327846841367        102.41329148582709       8.040569334518267        # O
96   96   1    126.58088751188608       102.41329148582709       8.040569334518267        # O
97   97   1    10.548711824454083       102.41329148582709       8.040569334518267        # O
98   98   1    21.096814594869933       102.41329148582709       8.040569334518267        # O
99   99   1    31.645526361990495       102.41329148582709       8.040569334518267        # O
100  100  1    42.193629189739866       102.41329148582709       8.040569334518267        # O
101  101  1    52.742340956860424       102.41329148582709       8.040569334518267        # O
102  102  1    73.83915555173037        108.52751783805554       8.040569334518267        # O
103  103  1    84.38725832214622        108.52751783805554       8.040569334518267        # O
104  104  1    94.9359701466003         108.52751783805554       8.040569334518267        # O
105  105  1    105.48407291701615       108.52751783805554       8.040569334518267        # O
106  106  1    116.0327846841367        108.52751783805554       8.040569334518267        # O
107  107  1    126.58088751188608       108.52751783805554       8.040569334518267        # O
108  108  1    10.548711824454083       108.52751783805554       8.040569334518267        # O
109  109  1    21.096814594869933       108.52751783805554       8.040569334518267        # O
110  110  1    31.645526361990495       108.52751783805554       8.040569334518267        # O
111  111  1    42.193629189739866       108.52751783805554       8.040569334518267        # O
112  112  1    52.742340956860424       108.52751783805554       8.040569334518267        # O
113  113  1    63.290443727276276       108.52751783805554       8.040569334518267        # O
114  114  1    68.56449514115097        1.528556616723879        8.040569334518267        # O
115  115  1    79.11320690827152        1.528556616723879        8.040569334518267        # O
116  116  1    89.66130973602091        1.528556616723879        8.040569334518267        # O
117  117  1    100.21002150314148       1.528556616723879        8.040569334518267        # O
118  118  1    110.75812427355731       1.528556616723879        8.040569334518267        # O
119  119  1    121.3068360980114        1.528556616723879        8.040569334518267        # O
120  120  1    5.274051413874689        1.528556616723879        8.040569334518267        # O
121  121  1    15.822763180995247       1.528556616723879        8.040569334518267        # O
122  122  1    26.370865951411098       1.528556616723879        8.040569334518267        # O
123  123  1    36.919577775865186       1.528556616723879        8.040569334518267        # O
124  124  1    47.46768054628104        1.528556616723879        8.040569334518267        # O
125  125  1    58.01639237073512        1.528556616723879        8.040569334518267        # O
126  126  1    68.56449514115097        7.642782968952345        8.040569334518267        # O
127  127  1    79.11320690827152        7.642782968952345        8.040569334518267        # O
128  128  1    89.66130973602091        7.642782968952345        8.040569334518267        # O
129  129  1    100.21002150314148       7.642782968952345        8.040569334518267        # O
130  130  1    110.75812427355731       7.642782968952345        8.040569334518267        # O
131  131  1    121.3068360980114        7.642782968952345        8.040569334518267        # O
132  132  1    5.274051413874689        7.642782968952345        8.040569334518267        # O
133  133  1    15.822763180995247       7.642782968952345        8.040569334518267        # O
134  134  1    26.370865951411098       7.642782968952345        8.040569334518267        # O
135  135  1    36.919577775865186       7.642782968952345        8.040569334518267        # O
136  136  1    47.46768054628104        7.642782968952345        8.040569334518267        # O
137  137  1    58.01639237073512        7.642782968952345        8.040569334518267        # O
138  138  1    63.290443727276276       10.699896145066578       8.040569334518267        # O
139  139  1    73.83915555173037        10.699896145066578       8.040569334518267        # O
140  140  1    84.38725832214622        10.699896145066578       8.040569334518267        # O
141  141  1    94.9359701466003         10.699896145066578       8.040569334518267        # O
142  142  1    105.48407291701615       10.699896145066578       8.040569334518267        # O
143  143  1    116.0327846841367        10.699896145066578       8.040569334518267        # O
144  144  1    126.58088751188608       10.699896145066578       8.040569334518267        # O
145  145  1    10.548711824454083       10.699896145066578       8.040569334518267        # O
146  146  1    21.096814594869933       10.699896145066578       8.040569334518267        # O
147  147  1    31.645526361990495       10.699896145066578       8.040569334518267        # O
148  148  1    42.193629189739866       10.699896145066578       8.040569334518267        # O
149  149  1    52.742340956860424       10.699896145066578       8.040569334518267        # O
150  150  1    73.83915555173037        16.814122497295045       8.040569334518267        # O
151  151  1    84.38725832214622        16.814122497295045       8.040569334518267        # O
152  152  1    94.9359701466003         16.814122497295045       8.040569334518267        # O
153  153  1    105.48407291701615       16.814122497295045       8.040569334518267        # O
154  154  1    116.0327846841367        16.814122497295045       8.040569334518267        # O
155  155  1    126.58088751188608       16.814122497295045       8.040569334518267        # O
156  156  1    10.548711824454083       16.814122497295045       8.040569334518267        # O
157  157  1    21.096814594869933       16.814122497295045       8.040569334518267        # O
158  158  1    31.645526361990495       16.814122497295045       8.040569334518267        # O
159  159  1    42.193629189739866       16.814122497295045       8.040569334518267        # O
160  160  1    52.742340956860424       16.814122497295045       8.040569334518267        # O
161  161  1    63.290443727276276       16.814122497295045       8.040569334518267        # O
162  162  1    79.11320690827152        19.871235673409277       8.040569334518267        # O
163  163  1    89.66130973602091        19.871235673409277       8.040569334518267        # O
164  164  1    100.21002150314148       19.871235673409277       8.040569334518267        # O
165  165  1    110.75812427355731       19.871235673409277       8.040569334518267        # O
166  166  1    121.3068360980114        19.871235673409277       8.040569334518267        # O
167  167  1    5.274051413874689        19.871235673409277       8.040569334518267        # O
168  168  1    15.822763180995247       19.871235673409277       8.040569334518267        # O
169  169  1    26.370865951411098       19.871235673409277       8.040569334518267        # O
170  170  1    36.919577775865186       19.871235673409277       8.040569334518267        # O
171  171  1    47.46768054628104        19.871235673409277       8.040569334518267        # O
172  172  1    58.01639237073512        19.871235673409277       8.040569334518267        # O
173  173  1    89.66130973602091        25.985462025637744       8.040569334518267        # O
174  174  1    100.21002150314148       25.985462025637744       8.040569334518267        # O
175  175  1    110.75812427355731       25.985462025637744       8.040569334518267        # O
176  176  1    121.3068360980114        25.985462025637744       8.040569334518267        # O
177  177  1    5.274051413874689        25.985462025637744       8.040569334518267        # O
178  178  1    15.822763180995247       25.985462025637744       8.040569334518267        # O
179  179  1    26.370865951411098       25.985462025637744       8.040569334518267        # O
180  180  1    36.919577775865186       25.985462025637744       8.040569334518267        # O
181  181  1    47.46768054628104        25.985462025637744       8.040569334518267        # O
182  182  1    94.9359701466003         29.042575201751976       8.040569334518267        # O
183  183  1    105.48407291701615       29.042575201751976       8.040569334518267        # O
184  184  1    116.0327846841367        29.042575201751976       8.040569334518267        # O
185  185  1    126.58088751188608       29.042575201751976       8.040569334518267        # O
186  186  1    10.548711824454083       29.042575201751976       8.040569334518267        # O
187  187  1    21.096814594869933       29.042575201751976       8.040569334518267        # O
188  188  1    31.645526361990495       29.042575201751976       8.040569334518267        # O
189  189  1    42.193629189739866       29.042575201751976       8.040569334518267        # O
190  190  1    105.48407291701615       35.15680155398044        8.040569334518267        # O
191  191  1    116.0327846841367        35.15680155398044        8.040569334518267        # O
192  192  1    126.58088751188608       35.15680155398044        8.040569334518267        # O
193  193  1    10.548711824454083       35.15680155398044        8.040569334518267        # O
194  194  1    21.096814594869933       35.15680155398044        8.040569334518267        # O
195  195  1    31.645526361990495       35.15680155398044        8.040569334518267        # O
196  196  1    100.21002150314148       38.21391473009467        8.040569334518267        # O
197  197  1    110.75812427355731       38.21391473009467        8.040569334518267        # O
198  198  1    121.3068360980114        38.21391473009467        8.040569334518267        # O
199  199  1    5.274051413874689        38.21391473009467        8.040569334518267        # O
200  200  1    15.822763180995247       38.21391473009467        8.040569334518267        # O
201  201  1    26.370865951411098       38.21391473009467        8.040569334518267        # O
202  202  1    36.919577775865186       38.21391473009467        8.040569334518267        # O
203  203  1    100.21002150314148       44.32814108232314        8.040569334518267        # O
204  204  1    110.75812427355731       44.32814108232314        8.040569334518267        # O
205  205  1    121.3068360980114        44.32814108232314        8.040569334518267        # O
206  206  1    5.274051413874689        44.32814108232314        8.040569334518267        # O
207  207  1    15.822763180995247       44.32814108232314        8.040569334518267        # O
208  208  1    26.370865951411098       44.32814108232314        8.040569334518267        # O
209  209  1    36.919577775865186       44.32814108232314        8.040569334518267        # O
210  210  1    105.48407291701615       47.38525425843738        8.040569334518267        # O
211  211  1    116.0327846841367        47.38525425843738        8.040569334518267        # O
212  212  1    126.58088751188608       47.38525425843738        8.040569334518267        # O
213  213  1    10.548711824454083       47.38525425843738        8.040569334518267        # O
214  214  1    21.096814594869933       47.38525425843738        8.040569334518267        # O
215  215  1    31.645526361990495       47.38525425843738        8.040569334518267        # O
216  216  1    105.48407291701615       53.49948061066584        8.040569334518267        # O
217  217  1    116.0327846841367        53.49948061066584        8.040569334518267        # O
218  218  1    126.58088751188608       53.49948061066584        8.040569334518267        # O
219  219  1    10.548711824454083       53.49948061066584        8.040569334518267        # O
220  220  1    21.096814594869933       53.49948061066584        8.040569334518267        # O
221  221  1    31.645526361990495       53.49948061066584        8.040569334518267        # O
222  222  1    100.21002150314148       56.55659378678007        8.040569334518267        # O
223  223  1    110.75812427355731       56.55659378678007        8.040569334518267        # O
224  224  1    121.3068360980114        56.55659378678007        8.040569334518267        # O
225  225  1    5.274051413874689        56.55659378678007        8.040569334518267        # O
226  226  1    15.822763180995247       56.55659378678007        8.040569334518267        # O
227  227  1    26.370865951411098       56.55659378678007        8.040569334518267        # O
228  228  1    36.919577775865186       56.55659378678007        8.040569334518267        # O
229  229  1    102.59704721007881       64.63238942895788        3.98503710016194         # O
230  230  1    102.59704721007881       64.63238942895788        12.096101568874595       # O
231  231  1    100.71002150314148       59.6137069628943         3.98503710016194         # O
232  232  1    100.71002150314148       59.6137069628943         12.096101568874595       # O
233  233  1    97.57299582487089        67.25648990317988        3.98503710016194         # O
234  234  1    97.57299582487089        67.25648990317988        12.096101568874595       # O
235  235  1    108.12109859528672       64.19937672706565        3.98503710016194         # O
236  236  1    108.12109859528672       64.19937672706565        12.096101568874595       # O
237  237  1    113.145454478847         64.63238942895788        3.98503710016194         # O
238  238  1    113.145454478847         64.63238942895788        12.096101568874595       # O
239  239  1    111.25812427355731       59.6137069628943         3.98503710016194         # O
240  240  1    111.25812427355731       59.6137069628943         12.096101568874595       # O
241  241  1    118.66981039107405       64.19937672706565        3.98503710016194         # O
242  242  1    118.66981039107405       64.19937672706565        12.096101568874595       # O
243  243  1    123.69386180494874       64.63238942895788        3.98503710016194         # O
244  244  1    123.69386180494874       64.63238942895788        12.096101568874595       # O
245  245  1    121.8068360980114        59.6137069628943         3.98503710016194         # O
246  246  1    121.8068360980114        59.6137069628943         12.096101568874595       # O
247  247  1    2.636995262835457        64.19937672706565        3.98503710016194         # O
248  248  1    2.636995262835457        64.19937672706565        12.096101568874595       # O
249  249  1    7.661381619164386        64.63238942895788        3.98503710016194         # O
250  250  1    7.661381619164386        64.63238942895788        12.096101568874595       # O
251  251  1    5.774051413874689        59.6137069628943         3.98503710016194         # O
252  252  1    5.774051413874689        59.6137069628943         12.096101568874595       # O
253  253  1    13.185737502724665       64.19937672706565        3.98503710016194         # O
254  254  1    13.185737502724665       64.19937672706565        12.096101568874595       # O
255  255  1    18.20978888793259        64.63238942895788        3.98503710016194         # O
256  256  1    18.20978888793259        64.63238942895788        12.096101568874595       # O
257  257  1    16.322763180995246       59.6137069628943         3.98503710016194         # O
258  258  1    16.322763180995246       59.6137069628943         12.096101568874595       # O
259  259  1    23.733840273140515       64.19937672706565        3.98503710016194         # O
260  260  1    23.733840273140515       64.19937672706565        12.096101568874595       # O
261  261  1    28.758196156700798       64.63238942895788        3.98503710016194         # O
262  262  1    28.758196156700798       64.63238942895788        12.096101568874595       # O
263  263  1    26.870865951411098       59.6137069628943         3.98503710016194         # O
264  264  1    26.870865951411098       59.6137069628943         12.096101568874595       # O
265  265  1    34.28255206892784        64.19937672706565        3.98503710016194         # O
266  266  1    34.28255206892784        64.19937672706565        12.096101568874595       # O
267  267  1    37.419577775865186       59.6137069628943         3.98503710016194         # O
268  268  1    37.419577775865186       59.6137069628943         12.096101568874595       # O
269  269  1    39.55660348280253        67.25648990317988        3.98503710016194         # O
270  270  1    39.55660348280253        67.25648990317988        12.096101568874595       # O
271  271  1    105.98407291701615       68.78504649123701        3.98503710016194         # O
272  272  1    105.98407291701615       68.78504649123701        12.096101568874595       # O
273  273  1    116.5327846841367        68.78504649123701        3.98503710016194         # O
274  274  1    116.5327846841367        68.78504649123701        12.096101568874595       # O
275  275  1    0.4999391117962233       68.78504649123701        3.98503710016194         # O
276  276  1    0.4999391117962233       68.78504649123701        12.096101568874595       # O
277  277  1    11.048711824454083       68.78504649123701        3.98503710016194         # O
278  278  1    11.048711824454083       68.78504649123701        12.096101568874595       # O
279  279  1    21.596814594869933       68.78504649123701        3.98503710016194         # O
280  280  1    21.596814594869933       68.78504649123701        12.096101568874595       # O
281  281  1    32.14552636199049        68.78504649123701        3.98503710016194         # O
282  282  1    32.14552636199049        68.78504649123701        12.096101568874595       # O
283  283  1    92.2986399413106         73.37071625540835        3.98503710016194         # O
284  284  1    92.2986399413106         73.37071625540835        12.096101568874595       # O
285  285  1    97.32299582487089        73.80372895730058        3.98503710016194         # O
286  286  1    97.32299582487089        73.80372895730058        12.096101568874595       # O
287  287  1    102.84704721007881       73.37071625540835        3.98503710016194         # O
288  288  1    102.84704721007881       73.37071625540835        12.096101568874595       # O
289  289  1    107.87109859528672       73.80372895730058        3.98503710016194         # O
290  290  1    107.87109859528672       73.80372895730058        12.096101568874595       # O
291  291  1    113.395454478847         73.37071625540835        3.98503710016194         # O
292  292  1    113.395454478847         73.37071625540835        12.096101568874595       # O
293  293  1    118.41981039107405       73.80372895730058        3.98503710016194         # O
294  294  1    118.41981039107405       73.80372895730058        12.096101568874595       # O
295  295  1    123.94386180494874       73.37071625540835        3.98503710016194         # O
296  296  1    123.94386180494874       73.37071625540835        12.096101568874595       # O
297  297  1    2.3869952628354554       73.80372895730058        3.98503710016194         # O
298  298  1    2.3869952628354554       73.80372895730058        12.096101568874595       # O
299  299  1    7.911381619164386        73.37071625540835        3.98503710016194         # O
300  300  1    7.911381619164386        73.37071625540835        12.096101568874595       # O
301  301  1    12.935737502724665       73.80372895730058        3.98503710016194         # O
302  302  1    12.935737502724665       73.80372895730058        12.096101568874595       # O
303  303  1    18.45978888793259        73.37071625540835        3.98503710016194         # O
304  304  1    18.45978888793259        73.37071625540835        12.096101568874595       # O
305  305  1    23.483840273140515       73.80372895730058        3.98503710016194         # O
306  306  1    23.483840273140515       73.80372895730058        12.096101568874595       # O
307  307  1    29.008196156700798       73.37071625540835        3.98503710016194         # O
308  308  1    29.008196156700798       73.37071625540835        12.096101568874595       # O
309  309  1    34.03255206892784        73.80372895730058        3.98503710016194         # O
310  310  1    34.03255206892784        73.80372895730058        12.096101568874595       # O
311  311  1    39.55660348280253        73.37071625540835        3.98503710016194         # O
312  312  1    39.55660348280253        73.37071625540835        12.096101568874595       # O
313  313  1    44.580654868010456       73.80372895730058        3.98503710016194         # O
314  314  1    44.580654868010456       73.80372895730058        12.096101568874595       # O