DATA FILE Produced from netmc results (cf David Morley)
570 atoms
1368 bonds
0 angles
0 dihedrals
0 impropers
2 atom types
2 bond types
0 angle types
0 dihedral types
0 improper types
0.00000 106.02827725713362 xlo xhi
0.00000 91.82318025829714 ylo yhi

# Pair Coeffs
#
# 1  O
# 2  Si

# Bond Coeffs
# 
# 1  O-O
# 2  Si-O
# 3  O-O rep
# 4  Si-Si rep

 Masses

1 28.10000 # O 
2 32.01000 # Si

 Atoms # molecular

1    1    2    83.93913997556389        52.28819986930809        5.0                      # Si
2    2    2    92.77457043152893        52.28819986930809        5.0                      # Si
3    3    2    101.61051101627318       52.28819986930809        5.0                      # Si
4    4    2    4.417715227982518        52.28819986930809        5.0                      # Si
5    5    2    13.253655812726764       52.28819986930809        5.0                      # Si
6    6    2    22.0890862686918         52.28819986930809        5.0                      # Si
7    7    2    30.925026853436048       52.28819986930809        5.0                      # Si
8    8    2    88.3568552035464         54.8388437653719         5.0                      # Si
9    9    2    97.19279578829067        54.8388437653719         5.0                      # Si
10   10   2    106.0282262442557        54.8388437653719         5.0                      # Si
11   11   2    8.835940584744248        54.8388437653719         5.0                      # Si
12   12   2    17.671371040709282       54.8388437653719         5.0                      # Si
13   13   2    26.50731162545353        54.8388437653719         5.0                      # Si
14   14   2    79.52142474758138        59.94013155749951        5.0                      # Si
15   15   2    88.3568552035464         59.94013155749951        5.0                      # Si
16   16   2    97.19279578829067        59.94013155749951        5.0                      # Si
17   17   2    106.0282262442557        59.94013155749951        5.0                      # Si
18   18   2    8.835940584744248        59.94013155749951        5.0                      # Si
19   19   2    17.671371040709282       59.94013155749951        5.0                      # Si
20   20   2    26.50731162545353        59.94013155749951        5.0                      # Si
21   21   2    35.342742081418564       59.94013155749951        5.0                      # Si
22   22   2    75.10319939081964        62.49077545356332        5.0                      # Si
23   23   2    83.93913997556389        62.49077545356332        5.0                      # Si
24   24   2    92.77457043152893        62.49077545356332        5.0                      # Si
25   25   2    101.61051101627318       62.49077545356332        5.0                      # Si
26   26   2    4.417715227982518        62.49077545356332        5.0                      # Si
27   27   2    13.253655812726764       62.49077545356332        5.0                      # Si
28   28   2    22.0890862686918         62.49077545356332        5.0                      # Si
29   29   2    30.925026853436048       62.49077545356332        5.0                      # Si
30   30   2    39.76045730940108        62.49077545356332        5.0                      # Si
31   31   2    66.26776893485462        67.59206324569094        5.0                      # Si
32   32   2    75.10319939081964        67.59206324569094        5.0                      # Si
33   33   2    83.93913997556389        67.59206324569094        5.0                      # Si
34   34   2    92.77457043152893        67.59206324569094        5.0                      # Si
35   35   2    101.61051101627318       67.59206324569094        5.0                      # Si
36   36   2    4.417715227982518        67.59206324569094        5.0                      # Si
37   37   2    13.253655812726764       67.59206324569094        5.0                      # Si
38   38   2    22.0890862686918         67.59206324569094        5.0                      # Si
39   39   2    30.925026853436048       67.59206324569094        5.0                      # Si
40   40   2    39.76045730940108        67.59206324569094        5.0                      # Si
41   41   2    48.59639789414533        67.59206324569094        5.0                      # Si
42   42   2    53.01411312212785        70.14270714175476        5.0                      # Si
43   43   2    61.850053706872096       70.14270714175476        5.0                      # Si
44   44   2    70.68548416283713        70.14270714175476        5.0                      # Si
45   45   2    79.52142474758138        70.14270714175476        5.0                      # Si
46   46   2    88.3568552035464         70.14270714175476        5.0                      # Si
47   47   2    97.19279578829067        70.14270714175476        5.0                      # Si
48   48   2    106.0282262442557        70.14270714175476        5.0                      # Si
49   49   2    8.835940584744248        70.14270714175476        5.0                      # Si
50   50   2    17.671371040709282       70.14270714175476        5.0                      # Si
51   51   2    26.50731162545353        70.14270714175476        5.0                      # Si
52   52   2    35.342742081418564       70.14270714175476        5.0                      # Si
53   53   2    44.178682666162814       70.14270714175476        5.0                      # Si
54   54   2    61.850053706872096       75.24399493388238        5.0                      # Si
55   55   2    70.68548416283713        75.24399493388238        5.0                      # Si
56   56   2    79.52142474758138        75.24399493388238        5.0                      # Si
57   57   2    88.3568552035464         75.24399493388238        5.0                      # Si
58   58   2    97.19279578829067        75.24399493388238        5.0                      # Si
59   59   2    106.0282262442557        75.24399493388238        5.0                      # Si
60   60   2    8.835940584744248        75.24399493388238        5.0                      # Si
61   61   2    17.671371040709282       75.24399493388238        5.0                      # Si
62   62   2    26.50731162545353        75.24399493388238        5.0                      # Si
63   63   2    35.342742081418564       75.24399493388238        5.0                      # Si
64   64   2    44.178682666162814       75.24399493388238        5.0                      # Si
65   65   2    53.01411312212785        75.24399493388238        5.0                      # Si
66   66   2    57.43182835011037        77.79463882994618        5.0                      # Si
67   67   2    66.26776893485462        77.79463882994618        5.0                      # Si
68   68   2    75.10319939081964        77.79463882994618        5.0                      # Si
69   69   2    83.93913997556389        77.79463882994618        5.0                      # Si
70   70   2    92.77457043152893        77.79463882994618        5.0                      # Si
71   71   2    101.61051101627318       77.79463882994618        5.0                      # Si
72   72   2    4.417715227982518        77.79463882994618        5.0                      # Si
73   73   2    13.253655812726764       77.79463882994618        5.0                      # Si
74   74   2    22.0890862686918         77.79463882994618        5.0                      # Si
75   75   2    30.925026853436048       77.79463882994618        5.0                      # Si
76   76   2    39.76045730940108        77.79463882994618        5.0                      # Si
77   77   2    48.59639789414533        77.79463882994618        5.0                      # Si
78   78   2    57.43182835011037        82.8959266220738         5.0                      # Si
79   79   2    66.26776893485462        82.8959266220738         5.0                      # Si
80   80   2    75.10319939081964        82.8959266220738         5.0                      # Si
81   81   2    83.93913997556389        82.8959266220738         5.0                      # Si
82   82   2    92.77457043152893        82.8959266220738         5.0                      # Si
83   83   2    101.61051101627318       82.8959266220738         5.0                      # Si
84   84   2    4.417715227982518        82.8959266220738         5.0                      # Si
85   85   2    13.253655812726764       82.8959266220738         5.0                      # Si
86   86   2    22.0890862686918         82.8959266220738         5.0                      # Si
87   87   2    30.925026853436048       82.8959266220738         5.0                      # Si
88   88   2    39.76045730940108        82.8959266220738         5.0                      # Si
89   89   2    48.59639789414533        82.8959266220738         5.0                      # Si
90   90   2    53.01411312212785        85.4465705181376         5.0                      # Si
91   91   2    61.850053706872096       85.4465705181376         5.0                      # Si
92   92   2    70.68548416283713        85.4465705181376         5.0                      # Si
93   93   2    79.52142474758138        85.4465705181376         5.0                      # Si
94   94   2    88.3568552035464         85.4465705181376         5.0                      # Si
95   95   2    97.19279578829067        85.4465705181376         5.0                      # Si
96   96   2    106.0282262442557        85.4465705181376         5.0                      # Si
97   97   2    8.835940584744248        85.4465705181376         5.0                      # Si
98   98   2    17.671371040709282       85.4465705181376         5.0                      # Si
99   99   2    26.50731162545353        85.4465705181376         5.0                      # Si
100  100  2    35.342742081418564       85.4465705181376         5.0                      # Si
101  101  2    44.178682666162814       85.4465705181376         5.0                      # Si
102  102  2    61.850053706872096       90.54785831026523        5.0                      # Si
103  103  2    70.68548416283713        90.54785831026523        5.0                      # Si
104  104  2    79.52142474758138        90.54785831026523        5.0                      # Si
105  105  2    88.3568552035464         90.54785831026523        5.0                      # Si
106  106  2    97.19279578829067        90.54785831026523        5.0                      # Si
107  107  2    106.0282262442557        90.54785831026523        5.0                      # Si
108  108  2    8.835940584744248        90.54785831026523        5.0                      # Si
109  109  2    17.671371040709282       90.54785831026523        5.0                      # Si
110  110  2    26.50731162545353        90.54785831026523        5.0                      # Si
111  111  2    35.342742081418564       90.54785831026523        5.0                      # Si
112  112  2    44.178682666162814       90.54785831026523        5.0                      # Si
113  113  2    53.01411312212785        90.54785831026523        5.0                      # Si
114  114  2    57.43182835011037        1.2753219480319047       5.0                      # Si
115  115  2    66.26776893485462        1.2753219480319047       5.0                      # Si
116  116  2    75.10319939081964        1.2753219480319047       5.0                      # Si
117  117  2    83.93913997556389        1.2753219480319047       5.0                      # Si
118  118  2    92.77457043152893        1.2753219480319047       5.0                      # Si
119  119  2    101.61051101627318       1.2753219480319047       5.0                      # Si
120  120  2    4.417715227982518        1.2753219480319047       5.0                      # Si
121  121  2    13.253655812726764       1.2753219480319047       5.0                      # Si
122  122  2    22.0890862686918         1.2753219480319047       5.0                      # Si
123  123  2    30.925026853436048       1.2753219480319047       5.0                      # Si
124  124  2    39.76045730940108        1.2753219480319047       5.0                      # Si
125  125  2    48.59639789414533        1.2753219480319047       5.0                      # Si
126  126  2    57.43182835011037        6.376609740159523        5.0                      # Si
127  127  2    66.26776893485462        6.376609740159523        5.0                      # Si
128  128  2    75.10319939081964        6.376609740159523        5.0                      # Si
129  129  2    83.93913997556389        6.376609740159523        5.0                      # Si
130  130  2    92.77457043152893        6.376609740159523        5.0                      # Si
131  131  2    101.61051101627318       6.376609740159523        5.0                      # Si
132  132  2    4.417715227982518        6.376609740159523        5.0                      # Si
133  133  2    13.253655812726764       6.376609740159523        5.0                      # Si
134  134  2    22.0890862686918         6.376609740159523        5.0                      # Si
135  135  2    30.925026853436048       6.376609740159523        5.0                      # Si
136  136  2    39.76045730940108        6.376609740159523        5.0                      # Si
137  137  2    48.59639789414533        6.376609740159523        5.0                      # Si
138  138  2    53.01411312212785        8.927253636223332        5.0                      # Si
139  139  2    61.850053706872096       8.927253636223332        5.0                      # Si
140  140  2    70.68548416283713        8.927253636223332        5.0                      # Si
141  141  2    79.52142474758138        8.927253636223332        5.0                      # Si
142  142  2    88.3568552035464         8.927253636223332        5.0                      # Si
143  143  2    97.19279578829067        8.927253636223332        5.0                      # Si
144  144  2    106.0282262442557        8.927253636223332        5.0                      # Si
145  145  2    8.835940584744248        8.927253636223332        5.0                      # Si
146  146  2    17.671371040709282       8.927253636223332        5.0                      # Si
147  147  2    26.50731162545353        8.927253636223332        5.0                      # Si
148  148  2    35.342742081418564       8.927253636223332        5.0                      # Si
149  149  2    44.178682666162814       8.927253636223332        5.0                      # Si
150  150  2    61.850053706872096       14.028541428350948       5.0                      # Si
151  151  2    70.68548416283713        14.028541428350948       5.0                      # Si
152  152  2    79.52142474758138        14.028541428350948       5.0                      # Si
153  153  2    88.3568552035464         14.028541428350948       5.0                      # Si
154  154  2    97.19279578829067        14.028541428350948       5.0                      # Si
155  155  2    106.0282262442557        14.028541428350948       5.0                      # Si
156  156  2    8.835940584744248        14.028541428350948       5.0                      # Si
157  157  2    17.671371040709282       14.028541428350948       5.0                      # Si
158  158  2    26.50731162545353        14.028541428350948       5.0                      # Si
159  159  2    35.342742081418564       14.028541428350948       5.0                      # Si
160  160  2    44.178682666162814       14.028541428350948       5.0                      # Si
161  161  2    53.01411312212785        14.028541428350948       5.0                      # Si
162  162  2    66.26776893485462        16.579185324414762       5.0                      # Si
163  163  2    75.10319939081964        16.579185324414762       5.0                      # Si
164  164  2    83.93913997556389        16.579185324414762       5.0                      # Si
165  165  2    92.77457043152893        16.579185324414762       5.0                      # Si
166  166  2    101.61051101627318       16.579185324414762       5.0                      # Si
167  167  2    4.417715227982518        16.579185324414762       5.0                      # Si
168  168  2    13.253655812726764       16.579185324414762       5.0                      # Si
169  169  2    22.0890862686918         16.579185324414762       5.0                      # Si
170  170  2    30.925026853436048       16.579185324414762       5.0                      # Si
171  171  2    39.76045730940108        16.579185324414762       5.0                      # Si
172  172  2    48.59639789414533        16.579185324414762       5.0                      # Si
173  173  2    75.10319939081964        21.68047311654238        5.0                      # Si
174  174  2    83.93913997556389        21.68047311654238        5.0                      # Si
175  175  2    92.77457043152893        21.68047311654238        5.0                      # Si
176  176  2    101.61051101627318       21.68047311654238        5.0                      # Si
177  177  2    4.417715227982518        21.68047311654238        5.0                      # Si
178  178  2    13.253655812726764       21.68047311654238        5.0                      # Si
179  179  2    22.0890862686918         21.68047311654238        5.0                      # Si
180  180  2    30.925026853436048       21.68047311654238        5.0                      # Si
181  181  2    39.76045730940108        21.68047311654238        5.0                      # Si
182  182  2    79.52142474758138        24.231117012606184       5.0                      # Si
183  183  2    88.3568552035464         24.231117012606184       5.0                      # Si
184  184  2    97.19279578829067        24.231117012606184       5.0                      # Si
185  185  2    106.0282262442557        24.231117012606184       5.0                      # Si
186  186  2    8.835940584744248        24.231117012606184       5.0                      # Si
187  187  2    17.671371040709282       24.231117012606184       5.0                      # Si
188  188  2    26.50731162545353        24.231117012606184       5.0                      # Si
189  189  2    35.342742081418564       24.231117012606184       5.0                      # Si
190  190  2    88.3568552035464         29.332404804733805       5.0                      # Si
191  191  2    97.19279578829067        29.332404804733805       5.0                      # Si
192  192  2    106.0282262442557        29.332404804733805       5.0                      # Si
193  193  2    8.835940584744248        29.332404804733805       5.0                      # Si
194  194  2    17.671371040709282       29.332404804733805       5.0                      # Si
195  195  2    26.50731162545353        29.332404804733805       5.0                      # Si
196  196  2    83.93913997556389        31.883048700797616       5.0                      # Si
197  197  2    92.77457043152893        31.883048700797616       5.0                      # Si
198  198  2    101.61051101627318       31.883048700797616       5.0                      # Si
199  199  2    4.417715227982518        31.883048700797616       5.0                      # Si
200  200  2    13.253655812726764       31.883048700797616       5.0                      # Si
201  201  2    22.0890862686918         31.883048700797616       5.0                      # Si
202  202  2    30.925026853436048       31.883048700797616       5.0                      # Si
203  203  2    83.93913997556389        36.98433649292524        5.0                      # Si
204  204  2    92.77457043152893        36.98433649292524        5.0                      # Si
205  205  2    101.61051101627318       36.98433649292524        5.0                      # Si
206  206  2    4.417715227982518        36.98433649292524        5.0                      # Si
207  207  2    13.253655812726764       36.98433649292524        5.0                      # Si
208  208  2    22.0890862686918         36.98433649292524        5.0                      # Si
209  209  2    30.925026853436048       36.98433649292524        5.0                      # Si
210  210  2    88.3568552035464         39.53498038898904        5.0                      # Si
211  211  2    97.19279578829067        39.53498038898904        5.0                      # Si
212  212  2    106.0282262442557        39.53498038898904        5.0                      # Si
213  213  2    8.835940584744248        39.53498038898904        5.0                      # Si
214  214  2    17.671371040709282       39.53498038898904        5.0                      # Si
215  215  2    26.50731162545353        39.53498038898904        5.0                      # Si
216  216  2    88.3568552035464         44.636268181116655       5.0                      # Si
217  217  2    97.19279578829067        44.636268181116655       5.0                      # Si
218  218  2    106.0282262442557        44.636268181116655       5.0                      # Si
219  219  2    8.835940584744248        44.636268181116655       5.0                      # Si
220  220  2    17.671371040709282       44.636268181116655       5.0                      # Si
221  221  2    26.50731162545353        44.636268181116655       5.0                      # Si
222  222  2    83.93913997556389        47.186912077180466       5.0                      # Si
223  223  2    92.77457043152893        47.186912077180466       5.0                      # Si
224  224  2    101.61051101627318       47.186912077180466       5.0                      # Si
225  225  2    4.417715227982518        47.186912077180466       5.0                      # Si
226  226  2    13.253655812726764       47.186912077180466       5.0                      # Si
227  227  2    22.0890862686918         47.186912077180466       5.0                      # Si
228  228  2    30.925026853436048       47.186912077180466       5.0                      # Si
229  229  1    85.89799758955515        53.996534519232206       5.0                      # O
230  230  1    84.43913997556389        49.73755597324428        5.0                      # O
231  231  1    81.73028236157263        56.1141657134038         5.0                      # O
232  232  1    90.56571281753767        53.56352181733999        5.0                      # O
233  233  1    94.7336831099098         53.996534519232206       5.0                      # O
234  234  1    93.27457043152893        49.73755597324428        5.0                      # O
235  235  1    99.40165340228192        53.56352181733999        5.0                      # O
236  236  1    103.56936863026445       53.996534519232206       5.0                      # O
237  237  1    102.11051101627318       49.73755597324428        5.0                      # O
238  238  1    2.2088321075523023       53.56352181733999        5.0                      # O
239  239  1    6.376827906363383        53.996534519232206       5.0                      # O
240  240  1    4.917715227982518        49.73755597324428        5.0                      # O
241  241  1    11.044798198735506       53.56352181733999        5.0                      # O
242  242  1    15.212513426718022       53.996534519232206       5.0                      # O
243  243  1    13.753655812726764       49.73755597324428        5.0                      # O
244  244  1    19.88022865470054        53.56352181733999        5.0                      # O
245  245  1    24.048198947072663       53.996534519232206       5.0                      # O
246  246  1    22.5890862686918         49.73755597324428        5.0                      # O
247  247  1    28.71616923944479        53.56352181733999        5.0                      # O
248  248  1    31.425026853436048       49.73755597324428        5.0                      # O
249  249  1    33.13388446742731        56.1141657134038         5.0                      # O
250  250  1    88.8568552035464         57.38948766143571        5.0                      # O
251  251  1    97.69279578829067        57.38948766143571        5.0                      # O
252  252  1    0.4999489871220817       57.38948766143571        5.0                      # O
253  253  1    9.335940584744248        57.38948766143571        5.0                      # O
254  254  1    18.171371040709282       57.38948766143571        5.0                      # O
255  255  1    27.00731162545353        57.38948766143571        5.0                      # O
256  256  1    77.31231206920052        61.215453505531414       5.0                      # O
257  257  1    81.48028236157263        61.64846620742363        5.0                      # O
258  258  1    86.14799758955515        61.215453505531414       5.0                      # O
259  259  1    90.31571281753767        61.64846620742363        5.0                      # O
260  260  1    94.9836831099098         61.215453505531414       5.0                      # O
261  261  1    99.15165340228192        61.64846620742363        5.0                      # O
262  262  1    103.81936863026445       61.215453505531414       5.0                      # O
263  263  1    1.958832107552297        61.64846620742363        5.0                      # O
264  264  1    6.626827906363383        61.215453505531414       5.0                      # O
265  265  1    10.794798198735506       61.64846620742363        5.0                      # O
266  266  1    15.462513426718022       61.215453505531414       5.0                      # O
267  267  1    19.63022865470054        61.64846620742363        5.0                      # O
268  268  1    24.298198947072663       61.215453505531414       5.0                      # O
269  269  1    28.46616923944479        61.64846620742363        5.0                      # O
270  270  1    33.13388446742731        61.215453505531414       5.0                      # O
271  271  1    37.30159969540982        61.64846620742363        5.0                      # O
272  272  1    75.60319939081964        65.04141934962713        5.0                      # O
273  273  1    70.68548416283713        65.04141934962713        5.0                      # O
274  274  1    84.43913997556389        65.04141934962713        5.0                      # O
275  275  1    93.27457043152893        65.04141934962713        5.0                      # O
276  276  1    102.11051101627318       65.04141934962713        5.0                      # O
277  277  1    4.917715227982518        65.04141934962713        5.0                      # O
278  278  1    13.753655812726764       65.04141934962713        5.0                      # O
279  279  1    22.5890862686918         65.04141934962713        5.0                      # O
280  280  1    31.425026853436048       65.04141934962713        5.0                      # O
281  281  1    40.26045730940108        65.04141934962713        5.0                      # O
282  282  1    43.92842760177321        65.47443205151936        5.0                      # O
283  283  1    64.05891132086336        68.86738519372284        5.0                      # O
284  284  1    68.22662654884587        69.30039789561506        5.0                      # O
285  285  1    72.89434177682838        68.86738519372284        5.0                      # O
286  286  1    77.06231206920052        69.30039789561506        5.0                      # O
287  287  1    81.73028236157263        68.86738519372284        5.0                      # O
288  288  1    85.89799758955515        69.30039789561506        5.0                      # O
289  289  1    90.56571281753767        68.86738519372284        5.0                      # O
290  290  1    94.7336831099098         69.30039789561506        5.0                      # O
291  291  1    99.40165340228192        68.86738519372284        5.0                      # O
292  292  1    103.56936863026445       69.30039789561506        5.0                      # O
293  293  1    2.2088321075523023       68.86738519372284        5.0                      # O
294  294  1    6.376827906363383        69.30039789561506        5.0                      # O
295  295  1    11.044798198735506       68.86738519372284        5.0                      # O
296  296  1    15.212513426718022       69.30039789561506        5.0                      # O
297  297  1    19.88022865470054        68.86738519372284        5.0                      # O
298  298  1    24.048198947072663       69.30039789561506        5.0                      # O
299  299  1    28.71616923944479        68.86738519372284        5.0                      # O
300  300  1    32.88388446742731        69.30039789561506        5.0                      # O
301  301  1    37.55159969540982        68.86738519372284        5.0                      # O
302  302  1    41.71956998778195        69.30039789561506        5.0                      # O
303  303  1    46.38754028015407        68.86738519372284        5.0                      # O
304  304  1    50.5552555081366         69.30039789561506        5.0                      # O
305  305  1    53.51411312212785        72.69335103781856        5.0                      # O
306  306  1    57.43208341449997        70.14270714175476        5.0                      # O
307  307  1    62.350053706872096       72.69335103781856        5.0                      # O
308  308  1    71.18548416283713        72.69335103781856        5.0                      # O
309  309  1    80.02142474758138        72.69335103781856        5.0                      # O
310  310  1    88.8568552035464         72.69335103781856        5.0                      # O
311  311  1    97.69279578829067        72.69335103781856        5.0                      # O
312  312  1    0.4999489871220817       72.69335103781856        5.0                      # O