DATA FILE Produced from netmc results (cf David Morley)
1270 atoms
3048 bonds
0 angles
0 dihedrals
0 impropers
2 atom types
2 bond types
0 angle types
0 dihedral types
0 improper types
0.00000 159.46644565970448 xlo xhi
0.00000 138.07143045622473 ylo yhi

# Pair Coeffs
#
# 1  O
# 2  Si

# Bond Coeffs
# 
# 1  O-O
# 2  Si-O
# 3  O-O rep
# 4  Si-Si rep

 Masses

1 28.10000 # O 
2 32.01000 # Si

 Atoms # molecular

1    1    2    84.71636565685357        76.2269355972214         5.0                      # Si
2    2    2    94.68330153036557        76.2269355972214         5.0                      # Si
3    3    2    104.64966200461863       76.2269355972214         5.0                      # Si
4    4    2    114.61659787813063       76.2269355972214         5.0                      # Si
5    5    2    124.58295835238371       76.2269355972214         5.0                      # Si
6    6    2    134.5498942258957        76.2269355972214         5.0                      # Si
7    7    2    144.51625470014878       76.2269355972214         5.0                      # Si
8    8    2    154.48319057366078       76.2269355972214         5.0                      # Si
9    9    2    4.98318020845977         76.2269355972214         5.0                      # Si
10   10   2    14.9501161393053         76.2269355972214         5.0                      # Si
11   11   2    24.916476613558363       76.2269355972214         5.0                      # Si
12   12   2    34.883412487070366       76.2269355972214         5.0                      # Si
13   13   2    44.84977296132344        76.2269355972214         5.0                      # Si
14   14   2    54.81670883483543        76.2269355972214         5.0                      # Si
15   15   2    64.7830693090885         76.2269355972214         5.0                      # Si
16   16   2    74.7500051826005         76.2269355972214         5.0                      # Si
17   17   2    89.7001213219058         79.10342368753149        5.0                      # Si
18   18   2    99.66648179615886        79.10342368753149        5.0                      # Si
19   19   2    109.63341766967086       79.10342368753149        5.0                      # Si
20   20   2    119.59977814392394       79.10342368753149        5.0                      # Si
21   21   2    129.56671401743594       79.10342368753149        5.0                      # Si
22   22   2    139.533074491689         79.10342368753149        5.0                      # Si
23   23   2    149.500010365201         79.10342368753149        5.0                      # Si
24   24   2    159.46637083945407       79.10342368753149        5.0                      # Si
25   25   2    9.966935873512002        79.10342368753149        5.0                      # Si
26   26   2    19.93329634776507        79.10342368753149        5.0                      # Si
27   27   2    29.900232221277072       79.10342368753149        5.0                      # Si
28   28   2    39.86659269553014        79.10342368753149        5.0                      # Si
29   29   2    49.83352862637567        79.10342368753149        5.0                      # Si
30   30   2    59.7998890432952         79.10342368753149        5.0                      # Si
31   31   2    69.76682497414073        79.10342368753149        5.0                      # Si
32   32   2    89.7001213219058         84.85639998281873        5.0                      # Si
33   33   2    99.66648179615886        84.85639998281873        5.0                      # Si
34   34   2    109.63341766967086       84.85639998281873        5.0                      # Si
35   35   2    119.59977814392394       84.85639998281873        5.0                      # Si
36   36   2    129.56671401743594       84.85639998281873        5.0                      # Si
37   37   2    139.533074491689         84.85639998281873        5.0                      # Si
38   38   2    149.500010365201         84.85639998281873        5.0                      # Si
39   39   2    159.46637083945407       84.85639998281873        5.0                      # Si
40   40   2    9.966935873512002        84.85639998281873        5.0                      # Si
41   41   2    19.93329634776507        84.85639998281873        5.0                      # Si
42   42   2    29.900232221277072       84.85639998281873        5.0                      # Si
43   43   2    39.86659269553014        84.85639998281873        5.0                      # Si
44   44   2    49.83352862637567        84.85639998281873        5.0                      # Si
45   45   2    59.7998890432952         84.85639998281873        5.0                      # Si
46   46   2    69.76682497414073        84.85639998281873        5.0                      # Si
47   47   2    94.68330153036557        87.73288813046233        5.0                      # Si
48   48   2    104.64966200461863       87.73288813046233        5.0                      # Si
49   49   2    114.61659787813063       87.73288813046233        5.0                      # Si
50   50   2    124.58295835238371       87.73288813046233        5.0                      # Si
51   51   2    134.5498942258957        87.73288813046233        5.0                      # Si
52   52   2    144.51625470014878       87.73288813046233        5.0                      # Si
53   53   2    154.48319057366078       87.73288813046233        5.0                      # Si
54   54   2    4.98318020845977         87.73288813046233        5.0                      # Si
55   55   2    14.9501161393053         87.73288813046233        5.0                      # Si
56   56   2    24.916476613558363       87.73288813046233        5.0                      # Si
57   57   2    34.883412487070366       87.73288813046233        5.0                      # Si
58   58   2    44.84977296132344        87.73288813046233        5.0                      # Si
59   59   2    54.81670883483543        87.73288813046233        5.0                      # Si
60   60   2    64.7830693090885         87.73288813046233        5.0                      # Si
61   61   2    84.71636565685357        93.48586436841603        5.0                      # Si
62   62   2    94.68330153036557        93.48586436841603        5.0                      # Si
63   63   2    104.64966200461863       93.48586436841603        5.0                      # Si
64   64   2    114.61659787813063       93.48586436841603        5.0                      # Si
65   65   2    124.58295835238371       93.48586436841603        5.0                      # Si
66   66   2    134.5498942258957        93.48586436841603        5.0                      # Si
67   67   2    144.51625470014878       93.48586436841603        5.0                      # Si
68   68   2    154.48319057366078       93.48586436841603        5.0                      # Si
69   69   2    4.98318020845977         93.48586436841603        5.0                      # Si
70   70   2    14.9501161393053         93.48586436841603        5.0                      # Si
71   71   2    24.916476613558363       93.48586436841603        5.0                      # Si
72   72   2    34.883412487070366       93.48586436841603        5.0                      # Si
73   73   2    44.84977296132344        93.48586436841603        5.0                      # Si
74   74   2    54.81670883483543        93.48586436841603        5.0                      # Si
75   75   2    64.7830693090885         93.48586436841603        5.0                      # Si
76   76   2    74.7500051826005         93.48586436841603        5.0                      # Si
77   77   2    79.73318539106027        96.36235251605966        5.0                      # Si
78   78   2    89.7001213219058         96.36235251605966        5.0                      # Si
79   79   2    99.66648179615886        96.36235251605966        5.0                      # Si
80   80   2    109.63341766967086       96.36235251605966        5.0                      # Si
81   81   2    119.59977814392394       96.36235251605966        5.0                      # Si
82   82   2    129.56671401743594       96.36235251605966        5.0                      # Si
83   83   2    139.533074491689         96.36235251605966        5.0                      # Si
84   84   2    149.500010365201         96.36235251605966        5.0                      # Si
85   85   2    159.46637083945407       96.36235251605966        5.0                      # Si
86   86   2    9.966935873512002        96.36235251605966        5.0                      # Si
87   87   2    19.93329634776507        96.36235251605966        5.0                      # Si
88   88   2    29.900232221277072       96.36235251605966        5.0                      # Si
89   89   2    39.86659269553014        96.36235251605966        5.0                      # Si
90   90   2    49.83352862637567        96.36235251605966        5.0                      # Si
91   91   2    59.7998890432952         96.36235251605966        5.0                      # Si
92   92   2    69.76682497414073        96.36235251605966        5.0                      # Si
93   93   2    89.7001213219058         102.11532881134688       5.0                      # Si
94   94   2    99.66648179615886        102.11532881134688       5.0                      # Si
95   95   2    109.63341766967086       102.11532881134688       5.0                      # Si
96   96   2    119.59977814392394       102.11532881134688       5.0                      # Si
97   97   2    129.56671401743594       102.11532881134688       5.0                      # Si
98   98   2    139.533074491689         102.11532881134688       5.0                      # Si
99   99   2    149.500010365201         102.11532881134688       5.0                      # Si
100  100  2    159.46637083945407       102.11532881134688       5.0                      # Si
101  101  2    9.966935873512002        102.11532881134688       5.0                      # Si
102  102  2    19.93329634776507        102.11532881134688       5.0                      # Si
103  103  2    29.900232221277072       102.11532881134688       5.0                      # Si
104  104  2    39.86659269553014        102.11532881134688       5.0                      # Si
105  105  2    49.83352862637567        102.11532881134688       5.0                      # Si
106  106  2    59.7998890432952         102.11532881134688       5.0                      # Si
107  107  2    69.76682497414073        102.11532881134688       5.0                      # Si
108  108  2    79.73318539106027        102.11532881134688       5.0                      # Si
109  109  2    84.71636565685357        104.99181690165697       5.0                      # Si
110  110  2    94.68330153036557        104.99181690165697       5.0                      # Si
111  111  2    104.64966200461863       104.99181690165697       5.0                      # Si
112  112  2    114.61659787813063       104.99181690165697       5.0                      # Si
113  113  2    124.58295835238371       104.99181690165697       5.0                      # Si
114  114  2    134.5498942258957        104.99181690165697       5.0                      # Si
115  115  2    144.51625470014878       104.99181690165697       5.0                      # Si
116  116  2    154.48319057366078       104.99181690165697       5.0                      # Si
117  117  2    4.98318020845977         104.99181690165697       5.0                      # Si
118  118  2    14.9501161393053         104.99181690165697       5.0                      # Si
119  119  2    24.916476613558363       104.99181690165697       5.0                      # Si
120  120  2    34.883412487070366       104.99181690165697       5.0                      # Si
121  121  2    44.84977296132344        104.99181690165697       5.0                      # Si
122  122  2    54.81670883483543        104.99181690165697       5.0                      # Si
123  123  2    64.7830693090885         104.99181690165697       5.0                      # Si
124  124  2    74.7500051826005         104.99181690165697       5.0                      # Si
125  125  2    84.71636565685357        110.74479319694422       5.0                      # Si
126  126  2    94.68330153036557        110.74479319694422       5.0                      # Si
127  127  2    104.64966200461863       110.74479319694422       5.0                      # Si
128  128  2    114.61659787813063       110.74479319694422       5.0                      # Si
129  129  2    124.58295835238371       110.74479319694422       5.0                      # Si
130  130  2    134.5498942258957        110.74479319694422       5.0                      # Si
131  131  2    144.51625470014878       110.74479319694422       5.0                      # Si
132  132  2    154.48319057366078       110.74479319694422       5.0                      # Si
133  133  2    4.98318020845977         110.74479319694422       5.0                      # Si
134  134  2    14.9501161393053         110.74479319694422       5.0                      # Si
135  135  2    24.916476613558363       110.74479319694422       5.0                      # Si
136  136  2    34.883412487070366       110.74479319694422       5.0                      # Si
137  137  2    44.84977296132344        110.74479319694422       5.0                      # Si
138  138  2    54.81670883483543        110.74479319694422       5.0                      # Si
139  139  2    64.7830693090885         110.74479319694422       5.0                      # Si
140  140  2    74.7500051826005         110.74479319694422       5.0                      # Si
141  141  2    79.73318539106027        113.62128134458783       5.0                      # Si
142  142  2    89.7001213219058         113.62128134458783       5.0                      # Si
143  143  2    99.66648179615886        113.62128134458783       5.0                      # Si
144  144  2    109.63341766967086       113.62128134458783       5.0                      # Si
145  145  2    119.59977814392394       113.62128134458783       5.0                      # Si
146  146  2    129.56671401743594       113.62128134458783       5.0                      # Si
147  147  2    139.533074491689         113.62128134458783       5.0                      # Si
148  148  2    149.500010365201         113.62128134458783       5.0                      # Si
149  149  2    159.46637083945407       113.62128134458783       5.0                      # Si
150  150  2    9.966935873512002        113.62128134458783       5.0                      # Si
151  151  2    19.93329634776507        113.62128134458783       5.0                      # Si
152  152  2    29.900232221277072       113.62128134458783       5.0                      # Si
153  153  2    39.86659269553014        113.62128134458783       5.0                      # Si
154  154  2    49.83352862637567        113.62128134458783       5.0                      # Si
155  155  2    59.7998890432952         113.62128134458783       5.0                      # Si
156  156  2    69.76682497414073        113.62128134458783       5.0                      # Si
157  157  2    89.7001213219058         119.37425758254153       5.0                      # Si
158  158  2    99.66648179615886        119.37425758254153       5.0                      # Si
159  159  2    109.63341766967086       119.37425758254153       5.0                      # Si
160  160  2    119.59977814392394       119.37425758254153       5.0                      # Si
161  161  2    129.56671401743594       119.37425758254153       5.0                      # Si
162  162  2    139.533074491689         119.37425758254153       5.0                      # Si
163  163  2    149.500010365201         119.37425758254153       5.0                      # Si
164  164  2    159.46637083945407       119.37425758254153       5.0                      # Si
165  165  2    9.966935873512002        119.37425758254153       5.0                      # Si
166  166  2    19.93329634776507        119.37425758254153       5.0                      # Si
167  167  2    29.900232221277072       119.37425758254153       5.0                      # Si
168  168  2    39.86659269553014        119.37425758254153       5.0                      # Si
169  169  2    49.83352862637567        119.37425758254153       5.0                      # Si
170  170  2    59.7998890432952         119.37425758254153       5.0                      # Si
171  171  2    69.76682497414073        119.37425758254153       5.0                      # Si
172  172  2    79.73318539106027        119.37425758254153       5.0                      # Si
173  173  2    84.71636565685357        122.25074573018514       5.0                      # Si
174  174  2    94.68330153036557        122.25074573018514       5.0                      # Si
175  175  2    104.64966200461863       122.25074573018514       5.0                      # Si
176  176  2    114.61659787813063       122.25074573018514       5.0                      # Si
177  177  2    124.58295835238371       122.25074573018514       5.0                      # Si
178  178  2    134.5498942258957        122.25074573018514       5.0                      # Si
179  179  2    144.51625470014878       122.25074573018514       5.0                      # Si
180  180  2    154.48319057366078       122.25074573018514       5.0                      # Si
181  181  2    4.98318020845977         122.25074573018514       5.0                      # Si
182  182  2    14.9501161393053         122.25074573018514       5.0                      # Si
183  183  2    24.916476613558363       122.25074573018514       5.0                      # Si
184  184  2    34.883412487070366       122.25074573018514       5.0                      # Si
185  185  2    44.84977296132344        122.25074573018514       5.0                      # Si
186  186  2    54.81670883483543        122.25074573018514       5.0                      # Si
187  187  2    64.7830693090885         122.25074573018514       5.0                      # Si
188  188  2    74.7500051826005         122.25074573018514       5.0                      # Si
189  189  2    84.71636565685357        128.00372202547237       5.0                      # Si
190  190  2    94.68330153036557        128.00372202547237       5.0                      # Si
191  191  2    104.64966200461863       128.00372202547237       5.0                      # Si
192  192  2    114.61659787813063       128.00372202547237       5.0                      # Si
193  193  2    124.58295835238371       128.00372202547237       5.0                      # Si
194  194  2    134.5498942258957        128.00372202547237       5.0                      # Si
195  195  2    144.51625470014878       128.00372202547237       5.0                      # Si
196  196  2    154.48319057366078       128.00372202547237       5.0                      # Si
197  197  2    4.98318020845977         128.00372202547237       5.0                      # Si
198  198  2    14.9501161393053         128.00372202547237       5.0                      # Si
199  199  2    24.916476613558363       128.00372202547237       5.0                      # Si
200  200  2    34.883412487070366       128.00372202547237       5.0                      # Si
201  201  2    44.84977296132344        128.00372202547237       5.0                      # Si
202  202  2    54.81670883483543        128.00372202547237       5.0                      # Si
203  203  2    64.7830693090885         128.00372202547237       5.0                      # Si
204  204  2    74.7500051826005         128.00372202547237       5.0                      # Si
205  205  2    79.73318539106027        130.88021011578246       5.0                      # Si
206  206  2    89.7001213219058         130.88021011578246       5.0                      # Si
207  207  2    99.66648179615886        130.88021011578246       5.0                      # Si
208  208  2    109.63341766967086       130.88021011578246       5.0                      # Si
209  209  2    119.59977814392394       130.88021011578246       5.0                      # Si
210  210  2    129.56671401743594       130.88021011578246       5.0                      # Si
211  211  2    139.533074491689         130.88021011578246       5.0                      # Si
212  212  2    149.500010365201         130.88021011578246       5.0                      # Si
213  213  2    159.46637083945407       130.88021011578246       5.0                      # Si
214  214  2    9.966935873512002        130.88021011578246       5.0                      # Si
215  215  2    19.93329634776507        130.88021011578246       5.0                      # Si
216  216  2    29.900232221277072       130.88021011578246       5.0                      # Si
217  217  2    39.86659269553014        130.88021011578246       5.0                      # Si
218  218  2    49.83352862637567        130.88021011578246       5.0                      # Si
219  219  2    59.7998890432952         130.88021011578246       5.0                      # Si
220  220  2    69.76682497414073        130.88021011578246       5.0                      # Si
221  221  2    89.7001213219058         136.6331864110697        5.0                      # Si
222  222  2    99.66648179615886        136.6331864110697        5.0                      # Si
223  223  2    109.63341766967086       136.6331864110697        5.0                      # Si
224  224  2    119.59977814392394       136.6331864110697        5.0                      # Si
225  225  2    129.56671401743594       136.6331864110697        5.0                      # Si
226  226  2    139.533074491689         136.6331864110697        5.0                      # Si
227  227  2    149.500010365201         136.6331864110697        5.0                      # Si
228  228  2    159.46637083945407       136.6331864110697        5.0                      # Si
229  229  2    9.966935873512002        136.6331864110697        5.0                      # Si
230  230  2    19.93329634776507        136.6331864110697        5.0                      # Si
231  231  2    29.900232221277072       136.6331864110697        5.0                      # Si
232  232  2    39.86659269553014        136.6331864110697        5.0                      # Si
233  233  2    49.83352862637567        136.6331864110697        5.0                      # Si
234  234  2    59.7998890432952         136.6331864110697        5.0                      # Si
235  235  2    69.76682497414073        136.6331864110697        5.0                      # Si
236  236  2    79.73318539106027        136.6331864110697        5.0                      # Si
237  237  2    84.71636565685357        1.438244045155045        5.0                      # Si
238  238  2    94.68330153036557        1.438244045155045        5.0                      # Si
239  239  2    104.64966200461863       1.438244045155045        5.0                      # Si
240  240  2    114.61659787813063       1.438244045155045        5.0                      # Si
241  241  2    124.58295835238371       1.438244045155045        5.0                      # Si
242  242  2    134.5498942258957        1.438244045155045        5.0                      # Si
243  243  2    144.51625470014878       1.438244045155045        5.0                      # Si
244  244  2    154.48319057366078       1.438244045155045        5.0                      # Si
245  245  2    4.98318020845977         1.438244045155045        5.0                      # Si
246  246  2    14.9501161393053         1.438244045155045        5.0                      # Si
247  247  2    24.916476613558363       1.438244045155045        5.0                      # Si
248  248  2    34.883412487070366       1.438244045155045        5.0                      # Si
249  249  2    44.84977296132344        1.438244045155045        5.0                      # Si
250  250  2    54.81670883483543        1.438244045155045        5.0                      # Si
251  251  2    64.7830693090885         1.438244045155045        5.0                      # Si
252  252  2    74.7500051826005         1.438244045155045        5.0                      # Si
253  253  2    84.71636565685357        7.191220340442274        5.0                      # Si
254  254  2    94.68330153036557        7.191220340442274        5.0                      # Si
255  255  2    104.64966200461863       7.191220340442274        5.0                      # Si
256  256  2    114.61659787813063       7.191220340442274        5.0                      # Si
257  257  2    124.58295835238371       7.191220340442274        5.0                      # Si
258  258  2    134.5498942258957        7.191220340442274        5.0                      # Si
259  259  2    144.51625470014878       7.191220340442274        5.0                      # Si
260  260  2    154.48319057366078       7.191220340442274        5.0                      # Si
261  261  2    4.98318020845977         7.191220340442274        5.0                      # Si
262  262  2    14.9501161393053         7.191220340442274        5.0                      # Si
263  263  2    24.916476613558363       7.191220340442274        5.0                      # Si
264  264  2    34.883412487070366       7.191220340442274        5.0                      # Si
265  265  2    44.84977296132344        7.191220340442274        5.0                      # Si
266  266  2    54.81670883483543        7.191220340442274        5.0                      # Si
267  267  2    64.7830693090885         7.191220340442274        5.0                      # Si
268  268  2    74.7500051826005         7.191220340442274        5.0                      # Si
269  269  2    79.73318539106027        10.06770848808589        5.0                      # Si
270  270  2    89.7001213219058         10.06770848808589        5.0                      # Si
271  271  2    99.66648179615886        10.06770848808589        5.0                      # Si
272  272  2    109.63341766967086       10.06770848808589        5.0                      # Si
273  273  2    119.59977814392394       10.06770848808589        5.0                      # Si
274  274  2    129.56671401743594       10.06770848808589        5.0                      # Si
275  275  2    139.533074491689         10.06770848808589        5.0                      # Si
276  276  2    149.500010365201         10.06770848808589        5.0                      # Si
277  277  2    159.46637083945407       10.06770848808589        5.0                      # Si
278  278  2    9.966935873512002        10.06770848808589        5.0                      # Si
279  279  2    19.93329634776507        10.06770848808589        5.0                      # Si
280  280  2    29.900232221277072       10.06770848808589        5.0                      # Si
281  281  2    39.86659269553014        10.06770848808589        5.0                      # Si
282  282  2    49.83352862637567        10.06770848808589        5.0                      # Si
283  283  2    59.7998890432952         10.06770848808589        5.0                      # Si
284  284  2    69.76682497414073        10.06770848808589        5.0                      # Si
285  285  2    89.7001213219058         15.820684726039595       5.0                      # Si
286  286  2    99.66648179615886        15.820684726039595       5.0                      # Si
287  287  2    109.63341766967086       15.820684726039595       5.0                      # Si
288  288  2    119.59977814392394       15.820684726039595       5.0                      # Si
289  289  2    129.56671401743594       15.820684726039595       5.0                      # Si
290  290  2    139.533074491689         15.820684726039595       5.0                      # Si
291  291  2    149.500010365201         15.820684726039595       5.0                      # Si
292  292  2    159.46637083945407       15.820684726039595       5.0                      # Si
293  293  2    9.966935873512002        15.820684726039595       5.0                      # Si
294  294  2    19.93329634776507        15.820684726039595       5.0                      # Si
295  295  2    29.900232221277072       15.820684726039595       5.0                      # Si
296  296  2    39.86659269553014        15.820684726039595       5.0                      # Si
297  297  2    49.83352862637567        15.820684726039595       5.0                      # Si
298  298  2    59.7998890432952         15.820684726039595       5.0                      # Si
299  299  2    69.76682497414073        15.820684726039595       5.0                      # Si
300  300  2    79.73318539106027        15.820684726039595       5.0                      # Si
301  301  2    84.71636565685357        18.697172873683208       5.0                      # Si
302  302  2    94.68330153036557        18.697172873683208       5.0                      # Si
303  303  2    104.64966200461863       18.697172873683208       5.0                      # Si
304  304  2    114.61659787813063       18.697172873683208       5.0                      # Si
305  305  2    124.58295835238371       18.697172873683208       5.0                      # Si
306  306  2    134.5498942258957        18.697172873683208       5.0                      # Si
307  307  2    144.51625470014878       18.697172873683208       5.0                      # Si
308  308  2    154.48319057366078       18.697172873683208       5.0                      # Si
309  309  2    4.98318020845977         18.697172873683208       5.0                      # Si
310  310  2    14.9501161393053         18.697172873683208       5.0                      # Si
311  311  2    24.916476613558363       18.697172873683208       5.0                      # Si