DATA FILE Produced from netmc results (cf David Morley)
3048 atoms
10160 bonds
0 angles
0 dihedrals
0 impropers
2 atom types
0 bond types
2 bond types
0 angle types
0 dihedral types
0 improper types
0.00000 159.46644565970448 xlo xhi
0.00000 138.07143045622473 ylo yhi
0.0000 200.0000 zlo zhi

# Pair Coeffs
#
# 1  O
# 2  Si

# Bond Coeffs
# 
# 1  O-O
# 2  Si-O
# 3  O-O rep
# 4  Si-Si rep

 Masses

1 28.10000 # O 
2 32.01000 # Si

 Atoms # molecular

1    1    1    84.71636565685357        76.2269355972214         8.040569334518267        # O
2    2    1    94.68330153036557        76.2269355972214         8.040569334518267        # O
3    3    1    104.64966200461863       76.2269355972214         8.040569334518267        # O
4    4    1    114.61659787813063       76.2269355972214         8.040569334518267        # O
5    5    1    124.58295835238371       76.2269355972214         8.040569334518267        # O
6    6    1    134.5498942258957        76.2269355972214         8.040569334518267        # O
7    7    1    144.51625470014878       76.2269355972214         8.040569334518267        # O
8    8    1    154.48319057366078       76.2269355972214         8.040569334518267        # O
9    9    1    4.98318020845977         76.2269355972214         8.040569334518267        # O
10   10   1    14.9501161393053         76.2269355972214         8.040569334518267        # O
11   11   1    24.916476613558363       76.2269355972214         8.040569334518267        # O
12   12   1    34.883412487070366       76.2269355972214         8.040569334518267        # O
13   13   1    44.84977296132344        76.2269355972214         8.040569334518267        # O
14   14   1    54.81670883483543        76.2269355972214         8.040569334518267        # O
15   15   1    64.7830693090885         76.2269355972214         8.040569334518267        # O
16   16   1    74.7500051826005         76.2269355972214         8.040569334518267        # O
17   17   1    89.7001213219058         79.10342368753149        8.040569334518267        # O
18   18   1    99.66648179615886        79.10342368753149        8.040569334518267        # O
19   19   1    109.63341766967086       79.10342368753149        8.040569334518267        # O
20   20   1    119.59977814392394       79.10342368753149        8.040569334518267        # O
21   21   1    129.56671401743594       79.10342368753149        8.040569334518267        # O
22   22   1    139.533074491689         79.10342368753149        8.040569334518267        # O
23   23   1    149.500010365201         79.10342368753149        8.040569334518267        # O
24   24   1    159.46637083945407       79.10342368753149        8.040569334518267        # O
25   25   1    9.966935873512002        79.10342368753149        8.040569334518267        # O
26   26   1    19.93329634776507        79.10342368753149        8.040569334518267        # O
27   27   1    29.900232221277072       79.10342368753149        8.040569334518267        # O
28   28   1    39.86659269553014        79.10342368753149        8.040569334518267        # O
29   29   1    49.83352862637567        79.10342368753149        8.040569334518267        # O
30   30   1    59.7998890432952         79.10342368753149        8.040569334518267        # O
31   31   1    69.76682497414073        79.10342368753149        8.040569334518267        # O
32   32   1    89.7001213219058         84.85639998281873        8.040569334518267        # O
33   33   1    99.66648179615886        84.85639998281873        8.040569334518267        # O
34   34   1    109.63341766967086       84.85639998281873        8.040569334518267        # O
35   35   1    119.59977814392394       84.85639998281873        8.040569334518267        # O
36   36   1    129.56671401743594       84.85639998281873        8.040569334518267        # O
37   37   1    139.533074491689         84.85639998281873        8.040569334518267        # O
38   38   1    149.500010365201         84.85639998281873        8.040569334518267        # O
39   39   1    159.46637083945407       84.85639998281873        8.040569334518267        # O
40   40   1    9.966935873512002        84.85639998281873        8.040569334518267        # O
41   41   1    19.93329634776507        84.85639998281873        8.040569334518267        # O
42   42   1    29.900232221277072       84.85639998281873        8.040569334518267        # O
43   43   1    39.86659269553014        84.85639998281873        8.040569334518267        # O
44   44   1    49.83352862637567        84.85639998281873        8.040569334518267        # O
45   45   1    59.7998890432952         84.85639998281873        8.040569334518267        # O
46   46   1    69.76682497414073        84.85639998281873        8.040569334518267        # O
47   47   1    94.68330153036557        87.73288813046233        8.040569334518267        # O
48   48   1    104.64966200461863       87.73288813046233        8.040569334518267        # O
49   49   1    114.61659787813063       87.73288813046233        8.040569334518267        # O
50   50   1    124.58295835238371       87.73288813046233        8.040569334518267        # O
51   51   1    134.5498942258957        87.73288813046233        8.040569334518267        # O
52   52   1    144.51625470014878       87.73288813046233        8.040569334518267        # O
53   53   1    154.48319057366078       87.73288813046233        8.040569334518267        # O
54   54   1    4.98318020845977         87.73288813046233        8.040569334518267        # O
55   55   1    14.9501161393053         87.73288813046233        8.040569334518267        # O
56   56   1    24.916476613558363       87.73288813046233        8.040569334518267        # O
57   57   1    34.883412487070366       87.73288813046233        8.040569334518267        # O
58   58   1    44.84977296132344        87.73288813046233        8.040569334518267        # O
59   59   1    54.81670883483543        87.73288813046233        8.040569334518267        # O
60   60   1    64.7830693090885         87.73288813046233        8.040569334518267        # O
61   61   1    84.71636565685357        93.48586436841603        8.040569334518267        # O
62   62   1    94.68330153036557        93.48586436841603        8.040569334518267        # O
63   63   1    104.64966200461863       93.48586436841603        8.040569334518267        # O
64   64   1    114.61659787813063       93.48586436841603        8.040569334518267        # O
65   65   1    124.58295835238371       93.48586436841603        8.040569334518267        # O
66   66   1    134.5498942258957        93.48586436841603        8.040569334518267        # O
67   67   1    144.51625470014878       93.48586436841603        8.040569334518267        # O
68   68   1    154.48319057366078       93.48586436841603        8.040569334518267        # O
69   69   1    4.98318020845977         93.48586436841603        8.040569334518267        # O
70   70   1    14.9501161393053         93.48586436841603        8.040569334518267        # O
71   71   1    24.916476613558363       93.48586436841603        8.040569334518267        # O
72   72   1    34.883412487070366       93.48586436841603        8.040569334518267        # O
73   73   1    44.84977296132344        93.48586436841603        8.040569334518267        # O
74   74   1    54.81670883483543        93.48586436841603        8.040569334518267        # O
75   75   1    64.7830693090885         93.48586436841603        8.040569334518267        # O
76   76   1    74.7500051826005         93.48586436841603        8.040569334518267        # O
77   77   1    79.73318539106027        96.36235251605966        8.040569334518267        # O
78   78   1    89.7001213219058         96.36235251605966        8.040569334518267        # O
79   79   1    99.66648179615886        96.36235251605966        8.040569334518267        # O
80   80   1    109.63341766967086       96.36235251605966        8.040569334518267        # O
81   81   1    119.59977814392394       96.36235251605966        8.040569334518267        # O
82   82   1    129.56671401743594       96.36235251605966        8.040569334518267        # O
83   83   1    139.533074491689         96.36235251605966        8.040569334518267        # O
84   84   1    149.500010365201         96.36235251605966        8.040569334518267        # O
85   85   1    159.46637083945407       96.36235251605966        8.040569334518267        # O
86   86   1    9.966935873512002        96.36235251605966        8.040569334518267        # O
87   87   1    19.93329634776507        96.36235251605966        8.040569334518267        # O
88   88   1    29.900232221277072       96.36235251605966        8.040569334518267        # O
89   89   1    39.86659269553014        96.36235251605966        8.040569334518267        # O
90   90   1    49.83352862637567        96.36235251605966        8.040569334518267        # O
91   91   1    59.7998890432952         96.36235251605966        8.040569334518267        # O
92   92   1    69.76682497414073        96.36235251605966        8.040569334518267        # O
93   93   1    89.7001213219058         102.11532881134688       8.040569334518267        # O
94   94   1    99.66648179615886        102.11532881134688       8.040569334518267        # O
95   95   1    109.63341766967086       102.11532881134688       8.040569334518267        # O
96   96   1    119.59977814392394       102.11532881134688       8.040569334518267        # O
97   97   1    129.56671401743594       102.11532881134688       8.040569334518267        # O
98   98   1    139.533074491689         102.11532881134688       8.040569334518267        # O
99   99   1    149.500010365201         102.11532881134688       8.040569334518267        # O
100  100  1    159.46637083945407       102.11532881134688       8.040569334518267        # O
101  101  1    9.966935873512002        102.11532881134688       8.040569334518267        # O
102  102  1    19.93329634776507        102.11532881134688       8.040569334518267        # O
103  103  1    29.900232221277072       102.11532881134688       8.040569334518267        # O
104  104  1    39.86659269553014        102.11532881134688       8.040569334518267        # O
105  105  1    49.83352862637567        102.11532881134688       8.040569334518267        # O
106  106  1    59.7998890432952         102.11532881134688       8.040569334518267        # O
107  107  1    69.76682497414073        102.11532881134688       8.040569334518267        # O
108  108  1    79.73318539106027        102.11532881134688       8.040569334518267        # O
109  109  1    84.71636565685357        104.99181690165697       8.040569334518267        # O
110  110  1    94.68330153036557        104.99181690165697       8.040569334518267        # O
111  111  1    104.64966200461863       104.99181690165697       8.040569334518267        # O
112  112  1    114.61659787813063       104.99181690165697       8.040569334518267        # O
113  113  1    124.58295835238371       104.99181690165697       8.040569334518267        # O
114  114  1    134.5498942258957        104.99181690165697       8.040569334518267        # O
115  115  1    144.51625470014878       104.99181690165697       8.040569334518267        # O
116  116  1    154.48319057366078       104.99181690165697       8.040569334518267        # O
117  117  1    4.98318020845977         104.99181690165697       8.040569334518267        # O
118  118  1    14.9501161393053         104.99181690165697       8.040569334518267        # O
119  119  1    24.916476613558363       104.99181690165697       8.040569334518267        # O
120  120  1    34.883412487070366       104.99181690165697       8.040569334518267        # O
121  121  1    44.84977296132344        104.99181690165697       8.040569334518267        # O
122  122  1    54.81670883483543        104.99181690165697       8.040569334518267        # O
123  123  1    64.7830693090885         104.99181690165697       8.040569334518267        # O
124  124  1    74.7500051826005         104.99181690165697       8.040569334518267        # O
125  125  1    84.71636565685357        110.74479319694422       8.040569334518267        # O
126  126  1    94.68330153036557        110.74479319694422       8.040569334518267        # O
127  127  1    104.64966200461863       110.74479319694422       8.040569334518267        # O
128  128  1    114.61659787813063       110.74479319694422       8.040569334518267        # O
129  129  1    124.58295835238371       110.74479319694422       8.040569334518267        # O
130  130  1    134.5498942258957        110.74479319694422       8.040569334518267        # O
131  131  1    144.51625470014878       110.74479319694422       8.040569334518267        # O
132  132  1    154.48319057366078       110.74479319694422       8.040569334518267        # O
133  133  1    4.98318020845977         110.74479319694422       8.040569334518267        # O
134  134  1    14.9501161393053         110.74479319694422       8.040569334518267        # O
135  135  1    24.916476613558363       110.74479319694422       8.040569334518267        # O
136  136  1    34.883412487070366       110.74479319694422       8.040569334518267        # O
137  137  1    44.84977296132344        110.74479319694422       8.040569334518267        # O
138  138  1    54.81670883483543        110.74479319694422       8.040569334518267        # O
139  139  1    64.7830693090885         110.74479319694422       8.040569334518267        # O
140  140  1    74.7500051826005         110.74479319694422       8.040569334518267        # O
141  141  1    79.73318539106027        113.62128134458783       8.040569334518267        # O
142  142  1    89.7001213219058         113.62128134458783       8.040569334518267        # O
143  143  1    99.66648179615886        113.62128134458783       8.040569334518267        # O
144  144  1    109.63341766967086       113.62128134458783       8.040569334518267        # O
145  145  1    119.59977814392394       113.62128134458783       8.040569334518267        # O
146  146  1    129.56671401743594       113.62128134458783       8.040569334518267        # O
147  147  1    139.533074491689         113.62128134458783       8.040569334518267        # O
148  148  1    149.500010365201         113.62128134458783       8.040569334518267        # O
149  149  1    159.46637083945407       113.62128134458783       8.040569334518267        # O
150  150  1    9.966935873512002        113.62128134458783       8.040569334518267        # O
151  151  1    19.93329634776507        113.62128134458783       8.040569334518267        # O
152  152  1    29.900232221277072       113.62128134458783       8.040569334518267        # O
153  153  1    39.86659269553014        113.62128134458783       8.040569334518267        # O
154  154  1    49.83352862637567        113.62128134458783       8.040569334518267        # O
155  155  1    59.7998890432952         113.62128134458783       8.040569334518267        # O
156  156  1    69.76682497414073        113.62128134458783       8.040569334518267        # O
157  157  1    89.7001213219058         119.37425758254153       8.040569334518267        # O
158  158  1    99.66648179615886        119.37425758254153       8.040569334518267        # O
159  159  1    109.63341766967086       119.37425758254153       8.040569334518267        # O
160  160  1    119.59977814392394       119.37425758254153       8.040569334518267        # O
161  161  1    129.56671401743594       119.37425758254153       8.040569334518267        # O
162  162  1    139.533074491689         119.37425758254153       8.040569334518267        # O
163  163  1    149.500010365201         119.37425758254153       8.040569334518267        # O
164  164  1    159.46637083945407       119.37425758254153       8.040569334518267        # O
165  165  1    9.966935873512002        119.37425758254153       8.040569334518267        # O
166  166  1    19.93329634776507        119.37425758254153       8.040569334518267        # O
167  167  1    29.900232221277072       119.37425758254153       8.040569334518267        # O
168  168  1    39.86659269553014        119.37425758254153       8.040569334518267        # O
169  169  1    49.83352862637567        119.37425758254153       8.040569334518267        # O
170  170  1    59.7998890432952         119.37425758254153       8.040569334518267        # O
171  171  1    69.76682497414073        119.37425758254153       8.040569334518267        # O
172  172  1    79.73318539106027        119.37425758254153       8.040569334518267        # O
173  173  1    84.71636565685357        122.25074573018514       8.040569334518267        # O
174  174  1    94.68330153036557        122.25074573018514       8.040569334518267        # O
175  175  1    104.64966200461863       122.25074573018514       8.040569334518267        # O
176  176  1    114.61659787813063       122.25074573018514       8.040569334518267        # O
177  177  1    124.58295835238371       122.25074573018514       8.040569334518267        # O
178  178  1    134.5498942258957        122.25074573018514       8.040569334518267        # O
179  179  1    144.51625470014878       122.25074573018514       8.040569334518267        # O
180  180  1    154.48319057366078       122.25074573018514       8.040569334518267        # O
181  181  1    4.98318020845977         122.25074573018514       8.040569334518267        # O
182  182  1    14.9501161393053         122.25074573018514       8.040569334518267        # O
183  183  1    24.916476613558363       122.25074573018514       8.040569334518267        # O
184  184  1    34.883412487070366       122.25074573018514       8.040569334518267        # O
185  185  1    44.84977296132344        122.25074573018514       8.040569334518267        # O
186  186  1    54.81670883483543        122.25074573018514       8.040569334518267        # O
187  187  1    64.7830693090885         122.25074573018514       8.040569334518267        # O
188  188  1    74.7500051826005         122.25074573018514       8.040569334518267        # O
189  189  1    84.71636565685357        128.00372202547237       8.040569334518267        # O
190  190  1    94.68330153036557        128.00372202547237       8.040569334518267        # O
191  191  1    104.64966200461863       128.00372202547237       8.040569334518267        # O
192  192  1    114.61659787813063       128.00372202547237       8.040569334518267        # O
193  193  1    124.58295835238371       128.00372202547237       8.040569334518267        # O
194  194  1    134.5498942258957        128.00372202547237       8.040569334518267        # O
195  195  1    144.51625470014878       128.00372202547237       8.040569334518267        # O
196  196  1    154.48319057366078       128.00372202547237       8.040569334518267        # O
197  197  1    4.98318020845977         128.00372202547237       8.040569334518267        # O
198  198  1    14.9501161393053         128.00372202547237       8.040569334518267        # O
199  199  1    24.916476613558363       128.00372202547237       8.040569334518267        # O
200  200  1    34.883412487070366       128.00372202547237       8.040569334518267        # O
201  201  1    44.84977296132344        128.00372202547237       8.040569334518267        # O
202  202  1    54.81670883483543        128.00372202547237       8.040569334518267        # O
203  203  1    64.7830693090885         128.00372202547237       8.040569334518267        # O
204  204  1    74.7500051826005         128.00372202547237       8.040569334518267        # O
205  205  1    79.73318539106027        130.88021011578246       8.040569334518267        # O
206  206  1    89.7001213219058         130.88021011578246       8.040569334518267        # O
207  207  1    99.66648179615886        130.88021011578246       8.040569334518267        # O
208  208  1    109.63341766967086       130.88021011578246       8.040569334518267        # O
209  209  1    119.59977814392394       130.88021011578246       8.040569334518267        # O
210  210  1    129.56671401743594       130.88021011578246       8.040569334518267        # O
211  211  1    139.533074491689         130.88021011578246       8.040569334518267        # O
212  212  1    149.500010365201         130.88021011578246       8.040569334518267        # O
213  213  1    159.46637083945407       130.88021011578246       8.040569334518267        # O
214  214  1    9.966935873512002        130.88021011578246       8.040569334518267        # O
215  215  1    19.93329634776507        130.88021011578246       8.040569334518267        # O
216  216  1    29.900232221277072       130.88021011578246       8.040569334518267        # O
217  217  1    39.86659269553014        130.88021011578246       8.040569334518267        # O
218  218  1    49.83352862637567        130.88021011578246       8.040569334518267        # O
219  219  1    59.7998890432952         130.88021011578246       8.040569334518267        # O
220  220  1    69.76682497414073        130.88021011578246       8.040569334518267        # O
221  221  1    89.7001213219058         136.6331864110697        8.040569334518267        # O
222  222  1    99.66648179615886        136.6331864110697        8.040569334518267        # O
223  223  1    109.63341766967086       136.6331864110697        8.040569334518267        # O
224  224  1    119.59977814392394       136.6331864110697        8.040569334518267        # O
225  225  1    129.56671401743594       136.6331864110697        8.040569334518267        # O
226  226  1    139.533074491689         136.6331864110697        8.040569334518267        # O
227  227  1    149.500010365201         136.6331864110697        8.040569334518267        # O
228  228  1    159.46637083945407       136.6331864110697        8.040569334518267        # O
229  229  1    9.966935873512002        136.6331864110697        8.040569334518267        # O
230  230  1    19.93329634776507        136.6331864110697        8.040569334518267        # O
231  231  1    29.900232221277072       136.6331864110697        8.040569334518267        # O
232  232  1    39.86659269553014        136.6331864110697        8.040569334518267        # O
233  233  1    49.83352862637567        136.6331864110697        8.040569334518267        # O
234  234  1    59.7998890432952         136.6331864110697        8.040569334518267        # O
235  235  1    69.76682497414073        136.6331864110697        8.040569334518267        # O
236  236  1    79.73318539106027        136.6331864110697        8.040569334518267        # O
237  237  1    84.71636565685357        1.438244045155045        8.040569334518267        # O
238  238  1    94.68330153036557        1.438244045155045        8.040569334518267        # O
239  239  1    104.64966200461863       1.438244045155045        8.040569334518267        # O
240  240  1    114.61659787813063       1.438244045155045        8.040569334518267        # O
241  241  1    124.58295835238371       1.438244045155045        8.040569334518267        # O
242  242  1    134.5498942258957        1.438244045155045        8.040569334518267        # O
243  243  1    144.51625470014878       1.438244045155045        8.040569334518267        # O
244  244  1    154.48319057366078       1.438244045155045        8.040569334518267        # O
245  245  1    4.98318020845977         1.438244045155045        8.040569334518267        # O
246  246  1    14.9501161393053         1.438244045155045        8.040569334518267        # O
247  247  1    24.916476613558363       1.438244045155045        8.040569334518267        # O
248  248  1    34.883412487070366       1.438244045155045        8.040569334518267        # O
249  249  1    44.84977296132344        1.438244045155045        8.040569334518267        # O
250  250  1    54.81670883483543        1.438244045155045        8.040569334518267        # O
251  251  1    64.7830693090885         1.438244045155045        8.040569334518267        # O
252  252  1    74.7500051826005         1.438244045155045        8.040569334518267        # O
253  253  1    84.71636565685357        7.191220340442274        8.040569334518267        # O
254  254  1    94.68330153036557        7.191220340442274        8.040569334518267        # O
255  255  1    104.64966200461863       7.191220340442274        8.040569334518267        # O
256  256  1    114.61659787813063       7.191220340442274        8.040569334518267        # O
257  257  1    124.58295835238371       7.191220340442274        8.040569334518267        # O
258  258  1    134.5498942258957        7.191220340442274        8.040569334518267        # O
259  259  1    144.51625470014878       7.191220340442274        8.040569334518267        # O
260  260  1    154.48319057366078       7.191220340442274        8.040569334518267        # O
261  261  1    4.98318020845977         7.191220340442274        8.040569334518267        # O
262  262  1    14.9501161393053         7.191220340442274        8.040569334518267        # O
263  263  1    24.916476613558363       7.191220340442274        8.040569334518267        # O
264  264  1    34.883412487070366       7.191220340442274        8.040569334518267        # O
265  265  1    44.84977296132344        7.191220340442274        8.040569334518267        # O
266  266  1    54.81670883483543        7.191220340442274        8.040569334518267        # O
267  267  1    64.7830693090885         7.191220340442274        8.040569334518267        # O
268  268  1    74.7500051826005         7.191220340442274        8.040569334518267        # O
269  269  1    79.73318539106027        10.06770848808589        8.040569334518267        # O
270  270  1    89.7001213219058         10.06770848808589        8.040569334518267        # O
271  271  1    99.66648179615886        10.06770848808589        8.040569334518267        # O
272  272  1    109.63341766967086       10.06770848808589        8.040569334518267        # O
273  273  1    119.59977814392394       10.06770848808589        8.040569334518267        # O
274  274  1    129.56671401743594       10.06770848808589        8.040569334518267        # O
275  275  1    139.533074491689         10.06770848808589        8.040569334518267        # O
276  276  1    149.500010365201         10.06770848808589        8.040569334518267        # O
277  277  1    159.46637083945407       10.06770848808589        8.040569334518267        # O
278  278  1    9.966935873512002        10.06770848808589        8.040569334518267        # O
279  279  1    19.93329634776507        10.06770848808589        8.040569334518267        # O
280  280  1    29.900232221277072       10.06770848808589        8.040569334518267        # O
281  281  1    39.86659269553014        10.06770848808589        8.040569334518267        # O
282  282  1    49.83352862637567        10.06770848808589        8.040569334518267        # O
283  283  1    59.7998890432952         10.06770848808589        8.040569334518267        # O
284  284  1    69.76682497414073        10.06770848808589        8.040569334518267        # O
285  285  1    89.7001213219058         15.820684726039595       8.040569334518267        # O
286  286  1    99.66648179615886        15.820684726039595       8.040569334518267        # O
287  287  1    109.63341766967086       15.820684726039595       8.040569334518267        # O
288  288  1    119.59977814392394       15.820684726039595       8.040569334518267        # O
289  289  1    129.56671401743594       15.820684726039595       8.040569334518267        # O
290  290  1    139.533074491689         15.820684726039595       8.040569334518267        # O
291  291  1    149.500010365201         15.820684726039595       8.040569334518267        # O
292  292  1    159.46637083945407       15.820684726039595       8.040569334518267        # O
293  293  1    9.966935873512002        15.820684726039595       8.040569334518267        # O
294  294  1    19.93329634776507        15.820684726039595       8.040569334518267        # O
295  295  1    29.900232221277072       15.820684726039595       8.040569334518267        # O
296  296  1    39.86659269553014        15.820684726039595       8.040569334518267        # O
297  297  1    49.83352862637567        15.820684726039595       8.040569334518267        # O
298  298  1    59.7998890432952         15.820684726039595       8.040569334518267        # O
299  299  1    69.76682497414073        15.820684726039595       8.040569334518267        # O
300  300  1    79.73318539106027        15.820684726039595       8.040569334518267        # O
301  301  1    84.71636565685357        18.697172873683208       8.040569334518267        # O
302  302  1    94.68330153036557        18.697172873683208       8.040569334518267        # O
303  303  1    104.64966200461863       18.697172873683208       8.040569334518267        # O
304  304  1    114.61659787813063       18.697172873683208       8.040569334518267        # O
305  305  1    124.58295835238371       18.697172873683208       8.040569334518267        # O
306  306  1    134.5498942258957        18.697172873683208       8.040569334518267        # O
307  307  1    144.51625470014878       18.697172873683208       8.040569334518267        # O
308  308  1    154.48319057366078       18.697172873683208       8.040569334518267        # O
309  309  1    4.98318020845977         18.697172873683208       8.040569334518267        # O
310  310  1    14.9501161393053         18.697172873683208       8.040569334518267        # O
311  311  1    24.916476613558363       18.697172873683208       8.040569334518267        # O
312  312  1    34.883412487070366       18.697172873683208       8.040569334518267        # O
313  313  1    44.84977296132344        18.697172873683208       8.040569334518267        # O
314  314  1    54.81670883483543        18.697172873683208       8.040569334518267        # O