LAMMPS (23 Jun 2022 - Update 2)
OMP_NUM_THREADS environment is not set. Defaulting to 1 thread. (src/comm.cpp:98)
  using 1 OpenMP thread(s) per MPI task
Reading data file ...
  orthogonal box = (0 0 -0.5) to (24.617067 21.319006 0.5)
  1 by 1 by 1 MPI processor grid
  reading atoms ...
  404 atoms
  scanning bonds ...
  3 = max bonds/atom
  scanning angles ...
  3 = max angles/atom
  reading bonds ...
  606 bonds
  reading angles ...
  1212 angles
Finding 1-2 1-3 1-4 neighbors ...
  special bond factors lj:    0        0        0       
  special bond factors coul:  0        0        0       
     3 = max # of 1-2 neighbors
     6 = max # of 1-3 neighbors
    18 = max # of 1-4 neighbors
    18 = max # of special neighbors
  special bonds CPU = 0.000 seconds
  read_data CPU = 0.007 seconds
Changing box ...
  orthogonal box = (-0.85963501 0 -0.5) to (25.476702 21.319006 0.5)
  orthogonal box = (-0.85963501 -0.78487595 -0.5) to (25.476702 22.103882 0.5)
WARNING: Using 'neigh_modify every 1 delay 0 check yes' setting during minimization (src/min.cpp:187)
Setting up sd style minimization ...
  Unit style    : electron
  Current step  : 0
WARNING: No pairwise cutoff or binsize set. Atom sorting therefore disabled. (src/atom.cpp:2142)
WARNING: Inconsistent image flags (src/domain.cpp:819)
Per MPI rank memory allocation (min/avg/max) = 9.715 | 9.715 | 9.715 Mbytes
---
keywords: ['Step', 'PotEng', 'KinEng', 'E_pair', 'E_bond', 'TotEng', 'Volume', 'Temp', ]
data:
  - [0, 13.8716748407957, 0, 0, 9.04926697925168, 13.8716748407957, 602.80603887763, 0, ]
  - [198, 7.40427978985859, 0, 0, 2.93760338915032, 7.40427978985859, 602.80603887763, 0, ]
...
Loop time of 0.0302726 on 1 procs for 198 steps with 404 atoms

99.8% CPU use with 1 MPI tasks x 1 OpenMP threads

Minimization stats:
  Stopping criterion = energy tolerance
  Energy initial, next-to-last, final = 
      13.8716748407957   7.40428704146207   7.40427978985859
  Force two-norm initial, final = 7.8767487 0.010715704
  Force max component initial, final = 1.8036879 0.0012594314
  Final line search alpha, max atom move = 1 0.0012594314
  Iterations, force evaluations = 198 377

MPI task timing breakdown:
Section |  min time  |  avg time  |  max time  |%varavg| %total
---------------------------------------------------------------
Pair    | 0          | 0          | 0          |   0.0 |  0.00
Bond    | 0.026443   | 0.026443   | 0.026443   |   0.0 | 87.35
Neigh   | 0          | 0          | 0          |   0.0 |  0.00
Comm    | 0.00084934 | 0.00084934 | 0.00084934 |   0.0 |  2.81
Output  | 0          | 0          | 0          |   0.0 |  0.00
Modify  | 0          | 0          | 0          |   0.0 |  0.00
Other   |            | 0.00298    |            |       |  9.84

Nlocal:            404 ave         404 max         404 min
Histogram: 1 0 0 0 0 0 0 0 0 0
Nghost:            347 ave         347 max         347 min
Histogram: 1 0 0 0 0 0 0 0 0 0
Neighs:              0 ave           0 max           0 min
Histogram: 1 0 0 0 0 0 0 0 0 0

Total # of neighbors = 0
Ave neighs/atom = 0
Ave special neighs/atom = 17.688119
Neighbor list builds = 0
Dangerous builds = 0
Total wall time: 0:00:00
