DATA FILE Produced from netmc results (cf David Morley)
228 atoms
1 atom types
0.00000 26.26040404327438 xlo xhi
0.00000 22.742176676826695 ylo yhi

 Masses

1 12.0000 # Si

 Atoms # molecular

1    1    20.789508118269154       12.950406163192978       0.0                     # C
2    1    22.977810896283813       12.950406163192978       0.0                     # C
3    1    25.166240019724455       12.950406163192978       0.0                     # C
4    1    1.0941513890073287       12.950406163192978       0.0                     # C
5    1    3.2825805124479683       12.950406163192978       0.0                     # C
6    1    5.470883290462625        12.950406163192978       0.0                     # C
7    1    7.659312413903265        12.950406163192978       0.0                     # C
8    1    21.883659507276484       13.58213329310483        0.0                     # C
9    1    24.072088630717126       13.58213329310483        0.0                     # C
10   1    26.260391408731785       13.58213329310483        0.0                     # C
11   1    2.1884291234406397       13.58213329310483        0.0                     # C
12   1    4.376731901455297        13.58213329310483        0.0                     # C
13   1    6.565161024895937        13.58213329310483        0.0                     # C
14   1    19.695356729261828       14.845587552928535       0.0                     # C
15   1    21.883659507276484       14.845587552928535       0.0                     # C
16   1    24.072088630717126       14.845587552928535       0.0                     # C
17   1    26.260391408731785       14.845587552928535       0.0                     # C
18   1    2.1884291234406397       14.845587552928535       0.0                     # C
19   1    4.376731901455297        14.845587552928535       0.0                     # C
20   1    6.565161024895937        14.845587552928535       0.0                     # C
21   1    8.753463802910593        14.845587552928535       0.0                     # C
22   1    18.601078994828516       15.477314682840388       0.0                     # C
23   1    20.789508118269154       15.477314682840388       0.0                     # C
24   1    22.977810896283813       15.477314682840388       0.0                     # C
25   1    25.166240019724455       15.477314682840388       0.0                     # C
26   1    1.0941513890073287       15.477314682840388       0.0                     # C
27   1    3.2825805124479683       15.477314682840388       0.0                     # C
28   1    5.470883290462625        15.477314682840388       0.0                     # C
29   1    7.659312413903265        15.477314682840388       0.0                     # C
30   1    9.847615191917923        15.477314682840388       0.0                     # C
31   1    16.412776216813857       16.74076894266409        0.0                     # C
32   1    18.601078994828516       16.74076894266409        0.0                     # C
33   1    20.789508118269154       16.74076894266409        0.0                     # C
34   1    22.977810896283813       16.74076894266409        0.0                     # C
35   1    25.166240019724455       16.74076894266409        0.0                     # C
36   1    1.0941513890073287       16.74076894266409        0.0                     # C
37   1    3.2825805124479683       16.74076894266409        0.0                     # C
38   1    5.470883290462625        16.74076894266409        0.0                     # C
39   1    7.659312413903265        16.74076894266409        0.0                     # C
40   1    9.847615191917923        16.74076894266409        0.0                     # C
41   1    12.036044315358563       16.74076894266409        0.0                     # C
42   1    13.130195704365892       17.372496072575945       0.0                     # C
43   1    15.31862482780653        17.372496072575945       0.0                     # C
44   1    17.506927605821186       17.372496072575945       0.0                     # C
45   1    19.695356729261828       17.372496072575945       0.0                     # C
46   1    21.883659507276484       17.372496072575945       0.0                     # C
47   1    24.072088630717126       17.372496072575945       0.0                     # C
48   1    26.260391408731785       17.372496072575945       0.0                     # C
49   1    2.1884291234406397       17.372496072575945       0.0                     # C
50   1    4.376731901455297        17.372496072575945       0.0                     # C
51   1    6.565161024895937        17.372496072575945       0.0                     # C
52   1    8.753463802910593        17.372496072575945       0.0                     # C
53   1    10.941892926351233       17.372496072575945       0.0                     # C
54   1    15.31862482780653        18.635950332399652       0.0                     # C
55   1    17.506927605821186       18.635950332399652       0.0                     # C
56   1    19.695356729261828       18.635950332399652       0.0                     # C
57   1    21.883659507276484       18.635950332399652       0.0                     # C
58   1    24.072088630717126       18.635950332399652       0.0                     # C
59   1    26.260391408731785       18.635950332399652       0.0                     # C
60   1    2.1884291234406397       18.635950332399652       0.0                     # C
61   1    4.376731901455297        18.635950332399652       0.0                     # C
62   1    6.565161024895937        18.635950332399652       0.0                     # C
63   1    8.753463802910593        18.635950332399652       0.0                     # C
64   1    10.941892926351233       18.635950332399652       0.0                     # C
65   1    13.130195704365892       18.635950332399652       0.0                     # C
66   1    14.22434709337322        19.2676774623115         0.0                     # C
67   1    16.412776216813857       19.2676774623115         0.0                     # C
68   1    18.601078994828516       19.2676774623115         0.0                     # C
69   1    20.789508118269154       19.2676774623115         0.0                     # C
70   1    22.977810896283813       19.2676774623115         0.0                     # C
71   1    25.166240019724455       19.2676774623115         0.0                     # C
72   1    1.0941513890073287       19.2676774623115         0.0                     # C
73   1    3.2825805124479683       19.2676774623115         0.0                     # C
74   1    5.470883290462625        19.2676774623115         0.0                     # C
75   1    7.659312413903265        19.2676774623115         0.0                     # C
76   1    9.847615191917923        19.2676774623115         0.0                     # C
77   1    12.036044315358563       19.2676774623115         0.0                     # C
78   1    14.22434709337322        20.531131722135207       0.0                     # C
79   1    16.412776216813857       20.531131722135207       0.0                     # C
80   1    18.601078994828516       20.531131722135207       0.0                     # C
81   1    20.789508118269154       20.531131722135207       0.0                     # C
82   1    22.977810896283813       20.531131722135207       0.0                     # C
83   1    25.166240019724455       20.531131722135207       0.0                     # C
84   1    1.0941513890073287       20.531131722135207       0.0                     # C
85   1    3.2825805124479683       20.531131722135207       0.0                     # C
86   1    5.470883290462625        20.531131722135207       0.0                     # C
87   1    7.659312413903265        20.531131722135207       0.0                     # C
88   1    9.847615191917923        20.531131722135207       0.0                     # C
89   1    12.036044315358563       20.531131722135207       0.0                     # C
90   1    13.130195704365892       21.162858852047062       0.0                     # C
91   1    15.31862482780653        21.162858852047062       0.0                     # C
92   1    17.506927605821186       21.162858852047062       0.0                     # C
93   1    19.695356729261828       21.162858852047062       0.0                     # C
94   1    21.883659507276484       21.162858852047062       0.0                     # C
95   1    24.072088630717126       21.162858852047062       0.0                     # C
96   1    26.260391408731785       21.162858852047062       0.0                     # C
97   1    2.1884291234406397       21.162858852047062       0.0                     # C
98   1    4.376731901455297        21.162858852047062       0.0                     # C
99   1    6.565161024895937        21.162858852047062       0.0                     # C
100  1    8.753463802910593        21.162858852047062       0.0                     # C
101  1    10.941892926351233       21.162858852047062       0.0                     # C
102  1    15.31862482780653        22.426313111870765       0.0                     # C
103  1    17.506927605821186       22.426313111870765       0.0                     # C
104  1    19.695356729261828       22.426313111870765       0.0                     # C
105  1    21.883659507276484       22.426313111870765       0.0                     # C
106  1    24.072088630717126       22.426313111870765       0.0                     # C
107  1    26.260391408731785       22.426313111870765       0.0                     # C
108  1    2.1884291234406397       22.426313111870765       0.0                     # C
109  1    4.376731901455297        22.426313111870765       0.0                     # C
110  1    6.565161024895937        22.426313111870765       0.0                     # C
111  1    8.753463802910593        22.426313111870765       0.0                     # C
112  1    10.941892926351233       22.426313111870765       0.0                     # C
113  1    13.130195704365892       22.426313111870765       0.0                     # C
114  1    14.22434709337322        0.31586356495592627      0.0                     # C
115  1    16.412776216813857       0.31586356495592627      0.0                     # C
116  1    18.601078994828516       0.31586356495592627      0.0                     # C
117  1    20.789508118269154       0.31586356495592627      0.0                     # C
118  1    22.977810896283813       0.31586356495592627      0.0                     # C
119  1    25.166240019724455       0.31586356495592627      0.0                     # C
120  1    1.0941513890073287       0.31586356495592627      0.0                     # C
121  1    3.2825805124479683       0.31586356495592627      0.0                     # C
122  1    5.470883290462625        0.31586356495592627      0.0                     # C
123  1    7.659312413903265        0.31586356495592627      0.0                     # C
124  1    9.847615191917923        0.31586356495592627      0.0                     # C
125  1    12.036044315358563       0.31586356495592627      0.0                     # C
126  1    14.22434709337322        1.5793178247796313       0.0                     # C
127  1    16.412776216813857       1.5793178247796313       0.0                     # C
128  1    18.601078994828516       1.5793178247796313       0.0                     # C
129  1    20.789508118269154       1.5793178247796313       0.0                     # C
130  1    22.977810896283813       1.5793178247796313       0.0                     # C
131  1    25.166240019724455       1.5793178247796313       0.0                     # C
132  1    1.0941513890073287       1.5793178247796313       0.0                     # C
133  1    3.2825805124479683       1.5793178247796313       0.0                     # C
134  1    5.470883290462625        1.5793178247796313       0.0                     # C
135  1    7.659312413903265        1.5793178247796313       0.0                     # C
136  1    9.847615191917923        1.5793178247796313       0.0                     # C
137  1    12.036044315358563       1.5793178247796313       0.0                     # C
138  1    13.130195704365892       2.211044954691484        0.0                     # C
139  1    15.31862482780653        2.211044954691484        0.0                     # C
140  1    17.506927605821186       2.211044954691484        0.0                     # C
141  1    19.695356729261828       2.211044954691484        0.0                     # C
142  1    21.883659507276484       2.211044954691484        0.0                     # C
143  1    24.072088630717126       2.211044954691484        0.0                     # C
144  1    26.260391408731785       2.211044954691484        0.0                     # C
145  1    2.1884291234406397       2.211044954691484        0.0                     # C
146  1    4.376731901455297        2.211044954691484        0.0                     # C
147  1    6.565161024895937        2.211044954691484        0.0                     # C
148  1    8.753463802910593        2.211044954691484        0.0                     # C
149  1    10.941892926351233       2.211044954691484        0.0                     # C
150  1    15.31862482780653        3.4744992145151885       0.0                     # C
151  1    17.506927605821186       3.4744992145151885       0.0                     # C
152  1    19.695356729261828       3.4744992145151885       0.0                     # C
153  1    21.883659507276484       3.4744992145151885       0.0                     # C
154  1    24.072088630717126       3.4744992145151885       0.0                     # C
155  1    26.260391408731785       3.4744992145151885       0.0                     # C
156  1    2.1884291234406397       3.4744992145151885       0.0                     # C
157  1    4.376731901455297        3.4744992145151885       0.0                     # C
158  1    6.565161024895937        3.4744992145151885       0.0                     # C
159  1    8.753463802910593        3.4744992145151885       0.0                     # C
160  1    10.941892926351233       3.4744992145151885       0.0                     # C
161  1    13.130195704365892       3.4744992145151885       0.0                     # C
162  1    16.412776216813857       4.106226344427042        0.0                     # C
163  1    18.601078994828516       4.106226344427042        0.0                     # C
164  1    20.789508118269154       4.106226344427042        0.0                     # C
165  1    22.977810896283813       4.106226344427042        0.0                     # C
166  1    25.166240019724455       4.106226344427042        0.0                     # C
167  1    1.0941513890073287       4.106226344427042        0.0                     # C
168  1    3.2825805124479683       4.106226344427042        0.0                     # C
169  1    5.470883290462625        4.106226344427042        0.0                     # C
170  1    7.659312413903265        4.106226344427042        0.0                     # C
171  1    9.847615191917923        4.106226344427042        0.0                     # C
172  1    12.036044315358563       4.106226344427042        0.0                     # C
173  1    18.601078994828516       5.369680604250747        0.0                     # C
174  1    20.789508118269154       5.369680604250747        0.0                     # C
175  1    22.977810896283813       5.369680604250747        0.0                     # C
176  1    25.166240019724455       5.369680604250747        0.0                     # C
177  1    1.0941513890073287       5.369680604250747        0.0                     # C
178  1    3.2825805124479683       5.369680604250747        0.0                     # C
179  1    5.470883290462625        5.369680604250747        0.0                     # C
180  1    7.659312413903265        5.369680604250747        0.0                     # C
181  1    9.847615191917923        5.369680604250747        0.0                     # C
182  1    19.695356729261828       6.001407734162599        0.0                     # C
183  1    21.883659507276484       6.001407734162599        0.0                     # C
184  1    24.072088630717126       6.001407734162599        0.0                     # C
185  1    26.260391408731785       6.001407734162599        0.0                     # C
186  1    2.1884291234406397       6.001407734162599        0.0                     # C
187  1    4.376731901455297        6.001407734162599        0.0                     # C
188  1    6.565161024895937        6.001407734162599        0.0                     # C
189  1    8.753463802910593        6.001407734162599        0.0                     # C
190  1    21.883659507276484       7.264861993986304        0.0                     # C
191  1    24.072088630717126       7.264861993986304        0.0                     # C
192  1    26.260391408731785       7.264861993986304        0.0                     # C
193  1    2.1884291234406397       7.264861993986304        0.0                     # C
194  1    4.376731901455297        7.264861993986304        0.0                     # C
195  1    6.565161024895937        7.264861993986304        0.0                     # C
196  1    20.789508118269154       7.896589123898157        0.0                     # C
197  1    22.977810896283813       7.896589123898157        0.0                     # C
198  1    25.166240019724455       7.896589123898157        0.0                     # C
199  1    1.0941513890073287       7.896589123898157        0.0                     # C
200  1    3.2825805124479683       7.896589123898157        0.0                     # C
201  1    5.470883290462625        7.896589123898157        0.0                     # C
202  1    7.659312413903265        7.896589123898157        0.0                     # C
203  1    20.789508118269154       9.160043383721863        0.0                     # C
204  1    22.977810896283813       9.160043383721863        0.0                     # C
205  1    25.166240019724455       9.160043383721863        0.0                     # C
206  1    1.0941513890073287       9.160043383721863        0.0                     # C
207  1    3.2825805124479683       9.160043383721863        0.0                     # C
208  1    5.470883290462625        9.160043383721863        0.0                     # C
209  1    7.659312413903265        9.160043383721863        0.0                     # C
210  1    21.883659507276484       9.791770513633715        0.0                     # C
211  1    24.072088630717126       9.791770513633715        0.0                     # C
212  1    26.260391408731785       9.791770513633715        0.0                     # C
213  1    2.1884291234406397       9.791770513633715        0.0                     # C
214  1    4.376731901455297        9.791770513633715        0.0                     # C
215  1    6.565161024895937        9.791770513633715        0.0                     # C
216  1    21.883659507276484       11.05522477345742        0.0                     # C
217  1    24.072088630717126       11.05522477345742        0.0                     # C
218  1    26.260391408731785       11.05522477345742        0.0                     # C
219  1    2.1884291234406397       11.05522477345742        0.0                     # C
220  1    4.376731901455297        11.05522477345742        0.0                     # C
221  1    6.565161024895937        11.05522477345742        0.0                     # C
222  1    20.789508118269154       11.686951903369271       0.0                     # C
223  1    22.977810896283813       11.686951903369271       0.0                     # C
224  1    25.166240019724455       11.686951903369271       0.0                     # C
225  1    1.0941513890073287       11.686951903369271       0.0                     # C
226  1    3.2825805124479683       11.686951903369271       0.0                     # C
227  1    5.470883290462625        11.686951903369271       0.0                     # C
228  1    7.659312413903265        11.686951903369271       0.0                     # C

