LAMMPS data file via write_data, version 22 Jul 2025, timestep = 118, units = electron

228 atoms
1 atom types
342 bonds
1 bond types
684 angles
1 angle types

-0.5754004296533323 19.06864271364938 xlo xhi
-0.5319688269003005 16.547586204947265 ylo yhi
-0.5 0.5 zlo zhi

Masses

1 28.0855

Bond Coeffs # harmonic

1 0.8 1

Angle Coeffs # cosine/squared

1 0.2 120

Atoms # molecular

1 1 1 14.415567789217757 9.144423145993878 0 0 0 0
2 2 1 16.33845931975117 9.106005137471227 0 0 0 0
3 3 1 18.12439603582965 9.143719639278276 0 0 0 0
4 4 1 0.24310851098830316 9.152311217300898 0 0 0 0
5 5 1 2.0058641692413777 9.143719643066166 0 0 0 0
6 6 1 3.7918008648642894 9.106005137178972 0 0 0 0
7 7 1 5.714692383843393 9.144423173042304 0 0 0 0
8 8 1 15.438286376477555 9.534468363152763 0 0 0 0
9 9 1 17.241285682787677 9.596978179313078 0 0 0 0
10 10 1 19.008436013679198 9.619210600127099 0 0 0 0
11 11 1 1.121824141237454 9.619210584232201 0 0 0 0
12 12 1 2.8889745062284184 9.596978194567361 0 0 0 0
13 13 1 4.691973777937524 9.534468344667374 0 0 0 0
14 14 1 13.803815742774862 10.213775400145986 0 0 0 0
15 15 1 15.506578145521466 10.470452841494662 0 0 0 0
16 16 1 17.26101605870917 10.528138697777479 0 0 0 0
17 17 1 19.0131143438567 10.55293971339846 0 0 0 0
18 18 1 1.1171458145864697 10.552939701993552 0 0 0 0
19 19 1 2.869244121769511 10.528138704314836 0 0 0 0
20 20 1 4.623682007512563 10.470452808457251 0 0 0 0
21 21 1 6.326444445274764 10.213775432296261 0 0 0 0
22 22 1 12.783252150211883 10.897841532019271 0 0 0 0
23 23 1 14.65882202709113 10.88918184601674 0 0 0 0
24 24 1 16.405257017548614 10.978394291619834 0 0 0 0
25 25 1 18.146006139852535 11.017119030030653 0 0 0 0
26 26 1 0.24310852414116688 11.029199781564031 0 0 0 0
27 27 1 1.9842540550601464 11.017119036826168 0 0 0 0
28 28 1 3.725003156382084 10.978394265541466 0 0 0 0
29 29 1 5.471438163851691 10.889181859763358 0 0 0 0
30 30 1 7.347008059868821 10.897841505526685 0 0 0 0
31 31 1 11.716928383215313 11.541327922719743 0 0 0 0
32 32 1 13.141016217456775 11.848940382565116 0 0 0 0
33 33 1 14.738086374442515 11.87752435406403 0 0 0 0
34 34 1 16.441232813024232 11.932950007598194 0 0 0 0
35 35 1 18.1610857336994 11.9660032797883 0 0 0 0
36 36 1 0.24310853250773914 11.976476870961953 0 0 0 0
37 37 1 1.969174457959064 11.966003290962577 0 0 0 0
38 38 1 3.689027368965762 11.932949995018884 0 0 0 0
39 39 1 5.392173810097908 11.877524368729526 0 0 0 0
40 40 1 6.989243971373238 11.848940346137383 0 0 0 0
41 41 1 8.413331767724499 11.541327989356885 0 0 0 0
42 42 1 9.468442779085057 12.123919517832164 0 0 0 0
43 43 1 10.661817402357936 12.123919521191606 0 0 0 0
44 44 1 12.364788877846895 12.314007585076428 0 0 0 0
45 45 1 13.973000675532713 12.349458540166166 0 0 0 0
46 46 1 15.614353603494768 12.392604842000404 0 0 0 0
47 47 1 17.313605745887052 12.433172194512487 0 0 0 0
48 48 1 19.027948124590182 12.452498983174694 0 0 0 0
49 49 1 1.1023120554064856 12.452498957591937 0 0 0 0
50 50 1 2.8166544266866924 12.433172212603719 0 0 0 0
51 51 1 4.515906567670989 12.392604844888025 0 0 0 0
52 52 1 6.157259502613994 12.3494585420385 0 0 0 0
53 53 1 7.765471303804194 12.314007563697484 0 0 0 0
54 54 1 10.828705277413453 13.210276021992618 0 0 0 0
55 55 1 12.39046920312241 13.309701242390274 0 0 0 0
56 56 1 14.011567530644887 13.34774524084905 0 0 0 0
57 57 1 15.653147193982262 13.37559432961658 0 0 0 0
58 58 1 17.33420536883999 13.399876360985047 0 0 0 0
59 59 1 19.034288147616373 13.413144860529403 0 0 0 0
60 60 1 1.0959720170137357 13.413144838833636 0 0 0 0
61 61 1 2.7960548183648575 13.399876384254188 0 0 0 0
62 62 1 4.477112978226313 13.375594339323545 0 0 0 0
63 63 1 6.118692637045388 13.347745248635027 0 0 0 0
64 64 1 7.739790994043684 13.309701200866952 0 0 0 0
65 65 1 9.301554917524289 13.21027601014152 0 0 0 0
66 66 1 10.065130097169172 13.743772899914777 0 0 0 0
67 67 1 11.622825318767235 13.76374101817648 0 0 0 0
68 68 1 13.212007277002005 13.82996393130734 0 0 0 0
69 69 1 14.844289737452653 13.855853121840092 0 0 0 0
70 70 1 16.50345710473342 13.875808859690087 0 0 0 0
71 71 1 18.189022438255524 13.891751220268238 0 0 0 0
72 72 1 0.24310852272410222 13.897333063772923 0 0 0 0
73 73 1 1.9412377439935138 13.891751233872181 0 0 0 0
74 74 1 3.62680310217216 13.875808856758017 0 0 0 0
75 75 1 5.2859704283551086 13.855853135809921 0 0 0 0
76 76 1 6.918252920244522 13.829963914923804 0 0 0 0
77 77 1 8.50743485999801 13.763741011132968 0 0 0 0
78 78 1 10.065130095340832 14.797028137886587 0 0 0 0
79 79 1 11.632919416829205 14.806286439304523 0 0 0 0
80 80 1 13.231829934023072 14.834727523115639 0 0 0 0
81 81 1 14.86168224191486 14.847065710961996 0 0 0 0
82 82 1 16.51748795677176 14.85599860496141 0 0 0 0
83 83 1 18.196136477210377 14.863092215906548 0 0 0 0
84 84 1 0.24310852914515726 14.865670738360759 0 0 0 0
85 85 1 1.9341237054856077 14.86309222510006 0 0 0 0
86 86 1 3.612772239773401 14.85599857919162 0 0 0 0
87 87 1 5.268577930276289 14.847065716257111 0 0 0 0
88 88 1 6.898430263573283 14.834727530109202 0 0 0 0
89 89 1 8.497340736315028 14.806286500450184 0 0 0 0
90 90 1 9.281110541525791 15.31369069635663 0 0 0 0
91 91 1 10.84914965599469 15.313690660223465 0 0 0 0
92 92 1 12.432812789338644 15.325133911491356 0 0 0 0
93 93 1 14.048320757187554 15.336644607409308 0 0 0 0
94 94 1 15.691211900527298 15.342732849939898 0 0 0 0
95 95 1 17.357743718407548 15.347204195841856 0 0 0 0
96 96 1 19.041908584997934 15.349958242598705 0 0 0 0
97 97 1 1.0883515780266944 15.34995824380949 0 0 0 0
98 98 1 2.7725164707986867 15.34720418649001 0 0 0 0
99 99 1 4.439048252178442 15.342732837899014 0 0 0 0
100 100 1 6.0819394454515505 15.336644612118882 0 0 0 0
101 101 1 7.697447367361216 15.325133936959505 0 0 0 0
102 102 1 10.849149655994696 16.35818549701708 0 0 0 0
103 103 1 12.432812789338639 16.346742245749187 0 0 0 0
104 104 1 14.048320757187552 16.33523154983125 0 0 0 0
105 105 1 15.691211900527298 16.329143307300654 0 0 0 0
106 106 1 17.357743718407548 16.324671961398703 0 0 0 0
107 107 1 19.041908584997937 16.321917914641848 0 0 0 0
108 108 1 1.0883515780266932 16.32191791343106 0 0 0 0
109 109 1 2.7725164707986854 16.324671970750536 0 0 0 0
110 110 1 4.4390482521784405 16.32914331934153 0 0 0 0
111 111 1 6.081939445451551 16.335231545121673 0 0 0 0
112 112 1 7.697447367361216 16.34674222028104 0 0 0 0
113 113 1 9.28111054152579 16.358185460883927 0 0 0 0
114 114 1 10.065130095340832 -0.2047070124936004 0 0 0 0
115 115 1 11.632919416829203 -0.21396531391154522 0 0 0 0
116 116 1 13.231829934023075 -0.2424063977226528 0 0 0 0
117 117 1 14.86168224191486 -0.2547445855690176 0 0 0 0
118 118 1 16.517487956771753 -0.26367747956842685 0 0 0 0
119 119 1 18.196136477210366 -0.27077109051355996 0 0 0 0
120 120 1 0.24310852914516354 -0.27334961296777355 0 0 0 0
121 121 1 1.9341237054856075 -0.27077109970707536 0 0 0 0
122 122 1 3.612772239773401 -0.26367745379864244 0 0 0 0
123 123 1 5.2685779302762885 -0.2547445908641282 0 0 0 0
124 124 1 6.898430263573278 -0.24240640471622316 0 0 0 0
125 125 1 8.497340736315028 -0.21396537505720115 0 0 0 0
126 126 1 10.065130097169176 0.8485482254782037 0 0 0 0
127 127 1 11.622825318767232 0.8285801072165004 0 0 0 0
128 128 1 13.212007277002002 0.7623571940856442 0 0 0 0
129 129 1 14.844289737452657 0.7364680035528961 0 0 0 0
130 130 1 16.50345710473343 0.7165122657028945 0 0 0 0
131 131 1 18.189022438255538 0.7005699051247443 0 0 0 0
132 132 1 0.2431085227240966 0.6949880616200625 0 0 0 0
133 133 1 1.9412377439935162 0.7005698915208048 0 0 0 0
134 134 1 3.626803102172157 0.716512268634965 0 0 0 0
135 135 1 5.2859704283551086 0.7364679895830575 0 0 0 0
136 136 1 6.918252920244521 0.7623572104691806 0 0 0 0
137 137 1 8.507434859998009 0.8285801142600204 0 0 0 0
138 138 1 9.301554917524289 1.3820451152514623 0 0 0 0
139 139 1 10.82870527741345 1.3820451034003702 0 0 0 0
140 140 1 12.39046920312241 1.28261988300271 0 0 0 0
141 141 1 14.011567530644884 1.2445758845439316 0 0 0 0
142 142 1 15.653147193982266 1.2167267957764032 0 0 0 0
143 143 1 17.334205368839996 1.1924447644079366 0 0 0 0
144 144 1 19.034288147616362 1.1791762648635817 0 0 0 0
145 145 1 1.0959720170137341 1.1791762865593536 0 0 0 0
146 146 1 2.796054818364859 1.1924447411387966 0 0 0 0
147 147 1 4.477112978226313 1.216726786069446 0 0 0 0
148 148 1 6.118692637045383 1.2445758767579667 0 0 0 0
149 149 1 7.7397909940436875 1.2826199245260335 0 0 0 0
150 150 1 10.661817402357935 2.468401604201378 0 0 0 0
151 151 1 12.364788877846902 2.2783135403165535 0 0 0 0
152 152 1 13.973000675532708 2.2428625852268165 0 0 0 0
153 153 1 15.614353603494768 2.199716283392582 0 0 0 0
154 154 1 17.31360574588706 2.1591489308804963 0 0 0 0
155 155 1 19.027948124590182 2.139822142218291 0 0 0 0
156 156 1 1.1023120554064856 2.139822167801049 0 0 0 0
157 157 1 2.8166544266866915 2.159148912789267 0 0 0 0
158 158 1 4.515906567670989 2.199716280504959 0 0 0 0
159 159 1 6.157259502613996 2.242862583354484 0 0 0 0
160 160 1 7.765471303804192 2.278313561695497 0 0 0 0
161 161 1 9.468442779085057 2.4684016075608235 0 0 0 0
162 162 1 11.716928383215306 3.0509932026732436 0 0 0 0
163 163 1 13.141016217456775 2.743380742827866 0 0 0 0
164 164 1 14.738086374442515 2.7147967713289543 0 0 0 0
165 165 1 16.441232813024236 2.6593711177947954 0 0 0 0
166 166 1 18.161085733699398 2.6263178456046847 0 0 0 0
167 167 1 0.2431085325077392 2.6158442544310336 0 0 0 0
168 168 1 1.9691744579590644 2.6263178344304037 0 0 0 0
169 169 1 3.6890273689657618 2.6593711303741014 0 0 0 0
170 170 1 5.392173810097909 2.7147967566634565 0 0 0 0
171 171 1 6.989243971373245 2.7433807792556046 0 0 0 0
172 172 1 8.413331767724495 3.0509931360360985 0 0 0 0
173 173 1 12.783252150211883 3.6944795933737096 0 0 0 0
174 174 1 14.658822027091135 3.703139279376245 0 0 0 0
175 175 1 16.405257017548617 3.613926833773149 0 0 0 0
176 176 1 18.14600613985253 3.5752020953623296 0 0 0 0
177 177 1 0.24310852414116538 3.5631213438289544 0 0 0 0
178 178 1 1.9842540550601468 3.5752020885668245 0 0 0 0
179 179 1 3.7250031563820865 3.613926859851515 0 0 0 0
180 180 1 5.4714381638516905 3.703139265629622 0 0 0 0
181 181 1 7.347008059868821 3.6944796198662986 0 0 0 0
182 182 1 13.803815742774862 4.378545725247003 0 0 0 0
183 183 1 15.506578145521464 4.1218682838983245 0 0 0 0
184 184 1 17.261016058709163 4.064182427615505 0 0 0 0
185 185 1 19.0131143438567 4.039381411994521 0 0 0 0
186 186 1 1.117145814586469 4.0393814233994325 0 0 0 0
187 187 1 2.8692441217695133 4.064182421078143 0 0 0 0
188 188 1 4.623682007512563 4.121868316935737 0 0 0 0
189 189 1 6.326444445274762 4.378545693096725 0 0 0 0
190 190 1 15.438286376477558 5.057852762240227 0 0 0 0
191 191 1 17.241285682787677 4.9953429460799095 0 0 0 0
192 192 1 19.008436013679205 4.973110525265889 0 0 0 0
193 193 1 1.1218241412374539 4.973110541160783 0 0 0 0
194 194 1 2.888974506228419 4.9953429308256245 0 0 0 0
195 195 1 4.691973777937528 5.057852780725608 0 0 0 0
196 196 1 14.415567789217755 5.447897979399101 0 0 0 0
197 197 1 16.33845931975116 5.486315987921757 0 0 0 0
198 198 1 18.12439603582966 5.448601486114706 0 0 0 0
199 199 1 0.2431085109883058 5.440009908092083 0 0 0 0
200 200 1 2.0058641692413786 5.448601482326819 0 0 0 0
201 201 1 3.7918008648642902 5.4863159882140105 0 0 0 0
202 202 1 5.714692383843396 5.447897952350681 0 0 0 0
203 203 1 14.478128490192269 6.671466298625647 0 0 0 0
204 204 1 16.352186132181775 6.376569964515853 0 0 0 0
205 205 1 18.12488587794973 6.370173753205747 0 0 0 0
206 206 1 0.24310851482179646 6.366923078745944 0 0 0 0
207 207 1 2.005374328008423 6.3701737611427784 0 0 0 0
208 208 1 3.778074052032918 6.376569958369475 0 0 0 0
209 209 1 5.65213168537312 6.67146628430276 0 0 0 0
210 210 1 15.4825112449349 6.844056555070868 0 0 0 0
211 211 1 17.240487099616008 6.83529183570064 0 0 0 0
212 212 1 19.00626774059458 6.834002964963987 0 0 0 0
213 213 1 1.1239924152909218 6.834002965118256 0 0 0 0
214 214 1 2.8897730736463787 6.8352918394651425 0 0 0 0
215 215 1 4.6477489390510325 6.844056541977814 0 0 0 0
216 216 1 15.4825112449349 7.7482645703221165 0 0 0 0
217 217 1 17.240487099616004 7.757029289692342 0 0 0 0
218 218 1 19.00626774059458 7.758318160429 0 0 0 0
219 219 1 1.1239924152909222 7.758318160274728 0 0 0 0
220 220 1 2.8897730736463765 7.757029285927848 0 0 0 0
221 221 1 4.647748939051034 7.74826458341517 0 0 0 0
222 222 1 14.478128490192267 7.920854826767342 0 0 0 0
223 223 1 16.352186132181775 8.215751160877131 0 0 0 0
224 224 1 18.124885877949737 8.222147372187239 0 0 0 0
225 225 1 0.24310851482179727 8.225398046647038 0 0 0 0
226 226 1 2.005374328008419 8.22214736425021 0 0 0 0
227 227 1 3.778074052032917 8.215751167023512 0 0 0 0
228 228 1 5.65213168537312 7.920854841090224 0 0 0 0

Velocities

1 0 0 0
2 0 0 0
3 0 0 0
4 0 0 0
5 0 0 0
6 0 0 0
7 0 0 0
8 0 0 0
9 0 0 0
10 0 0 0
11 0 0 0
12 0 0 0
13 0 0 0
14 0 0 0
15 0 0 0
16 0 0 0
17 0 0 0
18 0 0 0
19 0 0 0
20 0 0 0
21 0 0 0
22 0 0 0
23 0 0 0
24 0 0 0
25 0 0 0
26 0 0 0
27 0 0 0
28 0 0 0
29 0 0 0
30 0 0 0
31 0 0 0
32 0 0 0
33 0 0 0
34 0 0 0
35 0 0 0
36 0 0 0
37 0 0 0
38 0 0 0
39 0 0 0
40 0 0 0
41 0 0 0
42 0 0 0
43 0 0 0
44 0 0 0
45 0 0 0
46 0 0 0
47 0 0 0
48 0 0 0
49 0 0 0
50 0 0 0
51 0 0 0
52 0 0 0
53 0 0 0
54 0 0 0
55 0 0 0
56 0 0 0
57 0 0 0
58 0 0 0
59 0 0 0
60 0 0 0
61 0 0 0
62 0 0 0
63 0 0 0
64 0 0 0
65 0 0 0
66 0 0 0
67 0 0 0
68 0 0 0
69 0 0 0
70 0 0 0
71 0 0 0
72 0 0 0
73 0 0 0
74 0 0 0
75 0 0 0
76 0 0 0
77 0 0 0
78 0 0 0
79 0 0 0
80 0 0 0
81 0 0 0
82 0 0 0
83 0 0 0
84 0 0 0
85 0 0 0
86 0 0 0
87 0 0 0
88 0 0 0
89 0 0 0
90 0 0 0
91 0 0 0
92 0 0 0
93 0 0 0
94 0 0 0
95 0 0 0
96 0 0 0
97 0 0 0
98 0 0 0
99 0 0 0
100 0 0 0
101 0 0 0
102 0 0 0
103 0 0 0
104 0 0 0
105 0 0 0
106 0 0 0
107 0 0 0
108 0 0 0
109 0 0 0
110 0 0 0
111 0 0 0
112 0 0 0
113 0 0 0
114 0 0 0
115 0 0 0
116 0 0 0
117 0 0 0
118 0 0 0
119 0 0 0
120 0 0 0
121 0 0 0
122 0 0 0
123 0 0 0
124 0 0 0
125 0 0 0
126 0 0 0
127 0 0 0
128 0 0 0
129 0 0 0
130 0 0 0
131 0 0 0
132 0 0 0
133 0 0 0
134 0 0 0
135 0 0 0
136 0 0 0
137 0 0 0
138 0 0 0
139 0 0 0
140 0 0 0
141 0 0 0
142 0 0 0
143 0 0 0
144 0 0 0
145 0 0 0
146 0 0 0
147 0 0 0
148 0 0 0
149 0 0 0
150 0 0 0
151 0 0 0
152 0 0 0
153 0 0 0
154 0 0 0
155 0 0 0
156 0 0 0
157 0 0 0
158 0 0 0
159 0 0 0
160 0 0 0
161 0 0 0
162 0 0 0
163 0 0 0
164 0 0 0
165 0 0 0
166 0 0 0
167 0 0 0
168 0 0 0
169 0 0 0
170 0 0 0
171 0 0 0
172 0 0 0
173 0 0 0
174 0 0 0
175 0 0 0
176 0 0 0
177 0 0 0
178 0 0 0
179 0 0 0
180 0 0 0
181 0 0 0
182 0 0 0
183 0 0 0
184 0 0 0
185 0 0 0
186 0 0 0
187 0 0 0
188 0 0 0
189 0 0 0
190 0 0 0
191 0 0 0
192 0 0 0
193 0 0 0
194 0 0 0
195 0 0 0
196 0 0 0
197 0 0 0
198 0 0 0
199 0 0 0
200 0 0 0
201 0 0 0
202 0 0 0
203 0 0 0
204 0 0 0
205 0 0 0
206 0 0 0
207 0 0 0
208 0 0 0
209 0 0 0
210 0 0 0
211 0 0 0
212 0 0 0
213 0 0 0
214 0 0 0
215 0 0 0
216 0 0 0
217 0 0 0
218 0 0 0
219 0 0 0
220 0 0 0
221 0 0 0
222 0 0 0
223 0 0 0
224 0 0 0
225 0 0 0
226 0 0 0
227 0 0 0
228 0 0 0

Bonds

1 1 1 8
2 1 1 222
3 1 1 14
4 1 2 8
5 1 2 9
6 1 2 223
7 1 3 9
8 1 3 10
9 1 3 224
10 1 4 10
11 1 4 11
12 1 4 225
13 1 5 11
14 1 5 12
15 1 5 226
16 1 6 12
17 1 6 13
18 1 6 227
19 1 7 13
20 1 7 228
21 1 7 21
22 1 8 15
23 1 9 16
24 1 10 17
25 1 11 18
26 1 12 19
27 1 13 20
28 1 14 22
29 1 14 23
30 1 15 23
31 1 15 24
32 1 16 24
33 1 16 25
34 1 17 25
35 1 17 26
36 1 18 26
37 1 18 27
38 1 19 27
39 1 19 28
40 1 20 28
41 1 20 29
42 1 21 29
43 1 21 30
44 1 22 32
45 1 22 31
46 1 23 33
47 1 24 34
48 1 25 35
49 1 26 36
50 1 27 37
51 1 28 38
52 1 29 39
53 1 30 40
54 1 30 41
55 1 31 43
56 1 31 44
57 1 32 44
58 1 32 45
59 1 33 45
60 1 33 46
61 1 34 46
62 1 34 47
63 1 35 47
64 1 35 48
65 1 36 48
66 1 36 49
67 1 37 49
68 1 37 50
69 1 38 50
70 1 38 51
71 1 39 51
72 1 39 52
73 1 40 52
74 1 40 53
75 1 41 53
76 1 41 42
77 1 42 65
78 1 42 43
79 1 43 54
80 1 44 55
81 1 45 56
82 1 46 57
83 1 47 58
84 1 48 59
85 1 49 60
86 1 50 61
87 1 51 62
88 1 52 63
89 1 53 64
90 1 54 66
91 1 54 67
92 1 55 67
93 1 55 68
94 1 56 68
95 1 56 69
96 1 57 69
97 1 57 70
98 1 58 70
99 1 58 71
100 1 59 71
101 1 59 72
102 1 60 72
103 1 60 73
104 1 61 73
105 1 61 74
106 1 62 74
107 1 62 75
108 1 63 75
109 1 63 76
110 1 64 76
111 1 64 77
112 1 65 77
113 1 65 66
114 1 66 78
115 1 67 79
116 1 68 80
117 1 69 81
118 1 70 82
119 1 71 83
120 1 72 84
121 1 73 85
122 1 74 86
123 1 75 87
124 1 76 88
125 1 77 89
126 1 78 90
127 1 78 91
128 1 79 91
129 1 79 92
130 1 80 92
131 1 80 93
132 1 81 93
133 1 81 94
134 1 82 94
135 1 82 95
136 1 83 95
137 1 83 96
138 1 84 96
139 1 84 97
140 1 85 97
141 1 85 98
142 1 86 98
143 1 86 99
144 1 87 99
145 1 87 100
146 1 88 100
147 1 88 101
148 1 89 101
149 1 89 90
150 1 90 113
151 1 91 102
152 1 92 103
153 1 93 104
154 1 94 105
155 1 95 106
156 1 96 107
157 1 97 108
158 1 98 109
159 1 99 110
160 1 100 111
161 1 101 112
162 1 102 114
163 1 102 115
164 1 103 115
165 1 103 116
166 1 104 116
167 1 104 117
168 1 105 117
169 1 105 118
170 1 106 118
171 1 106 119
172 1 107 119
173 1 107 120
174 1 108 120
175 1 108 121
176 1 109 121
177 1 109 122
178 1 110 122
179 1 110 123
180 1 111 123
181 1 111 124
182 1 112 124
183 1 112 125
184 1 113 125
185 1 113 114
186 1 114 126
187 1 115 127
188 1 116 128
189 1 117 129
190 1 118 130
191 1 119 131
192 1 120 132
193 1 121 133
194 1 122 134
195 1 123 135
196 1 124 136
197 1 125 137
198 1 126 138
199 1 126 139
200 1 127 139
201 1 127 140
202 1 128 140
203 1 128 141
204 1 129 141
205 1 129 142
206 1 130 142
207 1 130 143
208 1 131 143
209 1 131 144
210 1 132 144
211 1 132 145
212 1 133 145
213 1 133 146
214 1 134 146
215 1 134 147
216 1 135 147
217 1 135 148
218 1 136 148
219 1 136 149
220 1 137 149
221 1 137 138
222 1 138 161
223 1 139 150
224 1 140 151
225 1 141 152
226 1 142 153
227 1 143 154
228 1 144 155
229 1 145 156
230 1 146 157
231 1 147 158
232 1 148 159
233 1 149 160
234 1 150 162
235 1 150 161
236 1 151 162
237 1 151 163
238 1 152 163
239 1 152 164
240 1 153 164
241 1 153 165
242 1 154 165
243 1 154 166
244 1 155 166
245 1 155 167
246 1 156 167
247 1 156 168
248 1 157 168
249 1 157 169
250 1 158 169
251 1 158 170
252 1 159 170
253 1 159 171
254 1 160 171
255 1 160 172
256 1 161 172
257 1 162 173
258 1 163 173
259 1 164 174
260 1 165 175
261 1 166 176
262 1 167 177
263 1 168 178
264 1 169 179
265 1 170 180
266 1 171 181
267 1 172 181
268 1 173 182
269 1 174 182
270 1 174 183
271 1 175 183
272 1 175 184
273 1 176 184
274 1 176 185
275 1 177 185
276 1 177 186
277 1 178 186
278 1 178 187
279 1 179 187
280 1 179 188
281 1 180 188
282 1 180 189
283 1 181 189
284 1 182 196
285 1 183 190
286 1 184 191
287 1 185 192
288 1 186 193
289 1 187 194
290 1 188 195
291 1 189 202
292 1 190 196
293 1 190 197
294 1 191 197
295 1 191 198
296 1 192 198
297 1 192 199
298 1 193 199
299 1 193 200
300 1 194 200
301 1 194 201
302 1 195 201
303 1 195 202
304 1 196 203
305 1 197 204
306 1 198 205
307 1 199 206
308 1 200 207
309 1 201 208
310 1 202 209
311 1 203 210
312 1 203 222
313 1 204 210
314 1 204 211
315 1 205 211
316 1 205 212
317 1 206 212
318 1 206 213
319 1 207 213
320 1 207 214
321 1 208 214
322 1 208 215
323 1 209 215
324 1 209 228
325 1 210 216
326 1 211 217
327 1 212 218
328 1 213 219
329 1 214 220
330 1 215 221
331 1 216 223
332 1 216 222
333 1 217 224
334 1 217 223
335 1 218 225
336 1 218 224
337 1 219 226
338 1 219 225
339 1 220 227
340 1 220 226
341 1 221 228
342 1 221 227

Angles

1 1 8 1 222
2 1 8 1 14
3 1 222 1 14
4 1 8 2 9
5 1 8 2 223
6 1 9 2 223
7 1 9 3 10
8 1 9 3 224
9 1 10 3 224
10 1 10 4 11
11 1 10 4 225
12 1 11 4 225
13 1 11 5 12
14 1 11 5 226
15 1 12 5 226
16 1 12 6 13
17 1 12 6 227
18 1 13 6 227
19 1 13 7 228
20 1 13 7 21
21 1 228 7 21
22 1 1 8 15
23 1 1 8 2
24 1 15 8 2
25 1 2 9 16
26 1 2 9 3
27 1 16 9 3
28 1 3 10 17
29 1 3 10 4
30 1 17 10 4
31 1 4 11 18
32 1 4 11 5
33 1 18 11 5
34 1 5 12 19
35 1 5 12 6
36 1 19 12 6
37 1 6 13 20
38 1 6 13 7
39 1 20 13 7
40 1 22 14 23
41 1 22 14 1
42 1 23 14 1
43 1 23 15 24
44 1 23 15 8
45 1 24 15 8
46 1 24 16 25
47 1 24 16 9
48 1 25 16 9
49 1 25 17 26
50 1 25 17 10
51 1 26 17 10
52 1 26 18 27
53 1 26 18 11
54 1 27 18 11
55 1 27 19 28
56 1 27 19 12
57 1 28 19 12
58 1 28 20 29
59 1 28 20 13
60 1 29 20 13
61 1 29 21 30
62 1 29 21 7
63 1 30 21 7
64 1 32 22 14
65 1 32 22 31
66 1 14 22 31
67 1 14 23 33
68 1 14 23 15
69 1 33 23 15
70 1 15 24 34
71 1 15 24 16
72 1 34 24 16
73 1 16 25 35
74 1 16 25 17
75 1 35 25 17
76 1 17 26 36
77 1 17 26 18
78 1 36 26 18
79 1 18 27 37
80 1 18 27 19
81 1 37 27 19
82 1 19 28 38
83 1 19 28 20
84 1 38 28 20
85 1 20 29 39
86 1 20 29 21
87 1 39 29 21
88 1 21 30 40
89 1 21 30 41
90 1 40 30 41
91 1 43 31 44
92 1 43 31 22
93 1 44 31 22
94 1 44 32 45
95 1 44 32 22
96 1 45 32 22
97 1 45 33 46
98 1 45 33 23
99 1 46 33 23
100 1 46 34 47
101 1 46 34 24
102 1 47 34 24
103 1 47 35 48
104 1 47 35 25
105 1 48 35 25
106 1 48 36 49
107 1 48 36 26
108 1 49 36 26
109 1 49 37 50
110 1 49 37 27
111 1 50 37 27
112 1 50 38 51
113 1 50 38 28
114 1 51 38 28
115 1 51 39 52
116 1 51 39 29
117 1 52 39 29
118 1 52 40 53
119 1 52 40 30
120 1 53 40 30
121 1 53 41 42
122 1 53 41 30
123 1 42 41 30
124 1 41 42 65
125 1 41 42 43
126 1 65 42 43
127 1 54 43 31
128 1 54 43 42
129 1 31 43 42
130 1 31 44 55
131 1 31 44 32
132 1 55 44 32
133 1 32 45 56
134 1 32 45 33
135 1 56 45 33
136 1 33 46 57
137 1 33 46 34
138 1 57 46 34
139 1 34 47 58
140 1 34 47 35
141 1 58 47 35
142 1 35 48 59
143 1 35 48 36
144 1 59 48 36
145 1 36 49 60
146 1 36 49 37
147 1 60 49 37
148 1 37 50 61
149 1 37 50 38
150 1 61 50 38
151 1 38 51 62
152 1 38 51 39
153 1 62 51 39
154 1 39 52 63
155 1 39 52 40
156 1 63 52 40
157 1 40 53 64
158 1 40 53 41
159 1 64 53 41
160 1 66 54 67
161 1 66 54 43
162 1 67 54 43
163 1 67 55 68
164 1 67 55 44
165 1 68 55 44
166 1 68 56 69
167 1 68 56 45
168 1 69 56 45
169 1 69 57 70
170 1 69 57 46
171 1 70 57 46
172 1 70 58 71
173 1 70 58 47
174 1 71 58 47
175 1 71 59 72
176 1 71 59 48
177 1 72 59 48
178 1 72 60 73
179 1 72 60 49
180 1 73 60 49
181 1 73 61 74
182 1 73 61 50
183 1 74 61 50
184 1 74 62 75
185 1 74 62 51
186 1 75 62 51
187 1 75 63 76
188 1 75 63 52
189 1 76 63 52
190 1 76 64 77
191 1 76 64 53
192 1 77 64 53
193 1 42 65 77
194 1 42 65 66
195 1 77 65 66
196 1 65 66 78
197 1 65 66 54
198 1 78 66 54
199 1 54 67 79
200 1 54 67 55
201 1 79 67 55
202 1 55 68 80
203 1 55 68 56
204 1 80 68 56
205 1 56 69 81
206 1 56 69 57
207 1 81 69 57
208 1 57 70 82
209 1 57 70 58
210 1 82 70 58
211 1 58 71 83
212 1 58 71 59
213 1 83 71 59
214 1 59 72 84
215 1 59 72 60
216 1 84 72 60
217 1 60 73 85
218 1 60 73 61
219 1 85 73 61
220 1 61 74 86
221 1 61 74 62
222 1 86 74 62
223 1 62 75 87
224 1 62 75 63
225 1 87 75 63
226 1 63 76 88
227 1 63 76 64
228 1 88 76 64
229 1 64 77 89
230 1 64 77 65
231 1 89 77 65
232 1 90 78 91
233 1 90 78 66
234 1 91 78 66
235 1 91 79 92
236 1 91 79 67
237 1 92 79 67
238 1 92 80 93
239 1 92 80 68
240 1 93 80 68
241 1 93 81 94
242 1 93 81 69
243 1 94 81 69
244 1 94 82 95
245 1 94 82 70
246 1 95 82 70
247 1 95 83 96
248 1 95 83 71
249 1 96 83 71
250 1 96 84 97
251 1 96 84 72
252 1 97 84 72
253 1 97 85 98
254 1 97 85 73
255 1 98 85 73
256 1 98 86 99
257 1 98 86 74
258 1 99 86 74
259 1 99 87 100
260 1 99 87 75
261 1 100 87 75
262 1 100 88 101
263 1 100 88 76
264 1 101 88 76
265 1 77 89 101
266 1 77 89 90
267 1 101 89 90
268 1 89 90 113
269 1 89 90 78
270 1 113 90 78
271 1 78 91 102
272 1 78 91 79
273 1 102 91 79
274 1 79 92 103
275 1 79 92 80
276 1 103 92 80
277 1 80 93 104
278 1 80 93 81
279 1 104 93 81
280 1 81 94 105
281 1 81 94 82
282 1 105 94 82
283 1 82 95 106
284 1 82 95 83
285 1 106 95 83
286 1 83 96 107
287 1 83 96 84
288 1 107 96 84
289 1 84 97 108
290 1 84 97 85
291 1 108 97 85
292 1 85 98 109
293 1 85 98 86
294 1 109 98 86
295 1 86 99 110
296 1 86 99 87
297 1 110 99 87
298 1 87 100 111
299 1 87 100 88
300 1 111 100 88
301 1 88 101 112
302 1 88 101 89
303 1 112 101 89
304 1 114 102 115
305 1 114 102 91
306 1 115 102 91
307 1 115 103 116
308 1 115 103 92
309 1 116 103 92
310 1 116 104 117
311 1 116 104 93
312 1 117 104 93
313 1 117 105 118
314 1 117 105 94
315 1 118 105 94
316 1 118 106 119
317 1 118 106 95
318 1 119 106 95
319 1 119 107 120
320 1 119 107 96
321 1 120 107 96
322 1 120 108 121
323 1 120 108 97
324 1 121 108 97
325 1 121 109 122
326 1 121 109 98
327 1 122 109 98
328 1 122 110 123
329 1 122 110 99
330 1 123 110 99
331 1 123 111 124
332 1 123 111 100
333 1 124 111 100
334 1 124 112 125
335 1 124 112 101
336 1 125 112 101
337 1 90 113 125
338 1 90 113 114
339 1 125 113 114
340 1 113 114 126
341 1 113 114 102
342 1 126 114 102
343 1 102 115 127
344 1 102 115 103
345 1 127 115 103
346 1 103 116 128
347 1 103 116 104
348 1 128 116 104
349 1 104 117 129
350 1 104 117 105
351 1 129 117 105
352 1 105 118 130
353 1 105 118 106
354 1 130 118 106
355 1 106 119 131
356 1 106 119 107
357 1 131 119 107
358 1 107 120 132
359 1 107 120 108
360 1 132 120 108
361 1 108 121 133
362 1 108 121 109
363 1 133 121 109
364 1 109 122 134
365 1 109 122 110
366 1 134 122 110
367 1 110 123 135
368 1 110 123 111
369 1 135 123 111
370 1 111 124 136
371 1 111 124 112
372 1 136 124 112
373 1 112 125 137
374 1 112 125 113
375 1 137 125 113
376 1 138 126 139
377 1 138 126 114
378 1 139 126 114
379 1 139 127 140
380 1 139 127 115
381 1 140 127 115
382 1 140 128 141
383 1 140 128 116
384 1 141 128 116
385 1 141 129 142
386 1 141 129 117
387 1 142 129 117
388 1 142 130 143
389 1 142 130 118
390 1 143 130 118
391 1 143 131 144
392 1 143 131 119
393 1 144 131 119
394 1 144 132 145
395 1 144 132 120
396 1 145 132 120
397 1 145 133 146
398 1 145 133 121
399 1 146 133 121
400 1 146 134 147
401 1 146 134 122
402 1 147 134 122
403 1 147 135 148
404 1 147 135 123
405 1 148 135 123
406 1 148 136 149
407 1 148 136 124
408 1 149 136 124
409 1 125 137 149
410 1 125 137 138
411 1 149 137 138
412 1 137 138 161
413 1 137 138 126
414 1 161 138 126
415 1 126 139 150
416 1 126 139 127
417 1 150 139 127
418 1 127 140 151
419 1 127 140 128
420 1 151 140 128
421 1 128 141 152
422 1 128 141 129
423 1 152 141 129
424 1 129 142 153
425 1 129 142 130
426 1 153 142 130
427 1 130 143 154
428 1 130 143 131
429 1 154 143 131
430 1 131 144 155
431 1 131 144 132
432 1 155 144 132
433 1 132 145 156
434 1 132 145 133
435 1 156 145 133
436 1 133 146 157
437 1 133 146 134
438 1 157 146 134
439 1 134 147 158
440 1 134 147 135
441 1 158 147 135
442 1 135 148 159
443 1 135 148 136
444 1 159 148 136
445 1 136 149 160
446 1 136 149 137
447 1 160 149 137
448 1 162 150 139
449 1 162 150 161
450 1 139 150 161
451 1 162 151 163
452 1 162 151 140
453 1 163 151 140
454 1 163 152 164
455 1 163 152 141
456 1 164 152 141
457 1 164 153 165
458 1 164 153 142
459 1 165 153 142
460 1 165 154 166
461 1 165 154 143
462 1 166 154 143
463 1 166 155 167
464 1 166 155 144
465 1 167 155 144
466 1 167 156 168
467 1 167 156 145
468 1 168 156 145
469 1 168 157 169
470 1 168 157 146
471 1 169 157 146
472 1 169 158 170
473 1 169 158 147
474 1 170 158 147
475 1 170 159 171
476 1 170 159 148
477 1 171 159 148
478 1 171 160 172
479 1 171 160 149
480 1 172 160 149
481 1 138 161 172
482 1 138 161 150
483 1 172 161 150
484 1 150 162 151
485 1 150 162 173
486 1 151 162 173
487 1 151 163 173
488 1 151 163 152
489 1 173 163 152
490 1 152 164 174
491 1 152 164 153
492 1 174 164 153
493 1 153 165 175
494 1 153 165 154
495 1 175 165 154
496 1 154 166 176
497 1 154 166 155
498 1 176 166 155
499 1 155 167 177
500 1 155 167 156
501 1 177 167 156
502 1 156 168 178
503 1 156 168 157
504 1 178 168 157
505 1 157 169 179
506 1 157 169 158
507 1 179 169 158
508 1 158 170 180
509 1 158 170 159
510 1 180 170 159
511 1 159 171 181
512 1 159 171 160
513 1 181 171 160
514 1 160 172 161
515 1 160 172 181
516 1 161 172 181
517 1 182 173 163
518 1 182 173 162
519 1 163 173 162
520 1 182 174 183
521 1 182 174 164
522 1 183 174 164
523 1 183 175 184
524 1 183 175 165
525 1 184 175 165
526 1 184 176 185
527 1 184 176 166
528 1 185 176 166
529 1 185 177 186
530 1 185 177 167
531 1 186 177 167
532 1 186 178 187
533 1 186 178 168
534 1 187 178 168
535 1 187 179 188
536 1 187 179 169
537 1 188 179 169
538 1 188 180 189
539 1 188 180 170
540 1 189 180 170
541 1 189 181 171
542 1 189 181 172
543 1 171 181 172
544 1 173 182 174
545 1 173 182 196
546 1 174 182 196
547 1 174 183 190
548 1 174 183 175
549 1 190 183 175
550 1 175 184 191
551 1 175 184 176
552 1 191 184 176
553 1 176 185 192
554 1 176 185 177
555 1 192 185 177
556 1 177 186 193
557 1 177 186 178
558 1 193 186 178
559 1 178 187 194
560 1 178 187 179
561 1 194 187 179
562 1 179 188 195
563 1 179 188 180
564 1 195 188 180
565 1 180 189 181
566 1 180 189 202
567 1 181 189 202
568 1 196 190 197
569 1 196 190 183
570 1 197 190 183
571 1 197 191 198
572 1 197 191 184
573 1 198 191 184
574 1 198 192 199
575 1 198 192 185
576 1 199 192 185
577 1 199 193 200
578 1 199 193 186
579 1 200 193 186
580 1 200 194 201
581 1 200 194 187
582 1 201 194 187
583 1 201 195 202
584 1 201 195 188
585 1 202 195 188
586 1 203 196 190
587 1 203 196 182
588 1 190 196 182
589 1 190 197 204
590 1 190 197 191
591 1 204 197 191
592 1 191 198 205
593 1 191 198 192
594 1 205 198 192
595 1 192 199 206
596 1 192 199 193
597 1 206 199 193
598 1 193 200 207
599 1 193 200 194
600 1 207 200 194
601 1 194 201 208
602 1 194 201 195
603 1 208 201 195
604 1 195 202 209
605 1 195 202 189
606 1 209 202 189
607 1 210 203 196
608 1 210 203 222
609 1 196 203 222
610 1 210 204 211
611 1 210 204 197
612 1 211 204 197
613 1 211 205 212
614 1 211 205 198
615 1 212 205 198
616 1 212 206 213
617 1 212 206 199
618 1 213 206 199
619 1 213 207 214
620 1 213 207 200
621 1 214 207 200
622 1 214 208 215
623 1 214 208 201
624 1 215 208 201
625 1 215 209 202
626 1 215 209 228
627 1 202 209 228
628 1 203 210 216
629 1 203 210 204
630 1 216 210 204
631 1 204 211 217
632 1 204 211 205
633 1 217 211 205
634 1 205 212 218
635 1 205 212 206
636 1 218 212 206
637 1 206 213 219
638 1 206 213 207
639 1 219 213 207
640 1 207 214 220
641 1 207 214 208
642 1 220 214 208
643 1 208 215 221
644 1 208 215 209
645 1 221 215 209
646 1 223 216 210
647 1 223 216 222
648 1 210 216 222
649 1 224 217 211
650 1 224 217 223
651 1 211 217 223