DATA FILE Produced from netmc results (cf David Morley)
1368 atoms
4560 bonds
0 angles
0 dihedrals
0 impropers
2 atom types
0 bond types
2 bond types
0 angle types
0 dihedral types
0 improper types
0.00000 106.02827725713362 xlo xhi
0.00000 91.82318025829714 ylo yhi
0.0000 200.0000 zlo zhi

# Pair Coeffs
#
# 1  O
# 2  Si

# Bond Coeffs
# 
# 1  O-O
# 2  Si-O
# 3  O-O rep
# 4  Si-Si rep

 Masses

1 28.10000 # O 
2 32.01000 # Si

 Atoms # molecular

1    1    2    83.93913997556389        52.28819986930809        5.0                      # Si
2    2    2    83.93913997556389        52.28819986930809        11.081138669036534       # Si
3    3    2    92.77457043152893        52.28819986930809        5.0                      # Si
4    4    2    92.77457043152893        52.28819986930809        11.081138669036534       # Si
5    5    2    101.61051101627318       52.28819986930809        5.0                      # Si
6    6    2    101.61051101627318       52.28819986930809        11.081138669036534       # Si
7    7    2    4.417715227982518        52.28819986930809        5.0                      # Si
8    8    2    4.417715227982518        52.28819986930809        11.081138669036534       # Si
9    9    2    13.253655812726764       52.28819986930809        5.0                      # Si
10   10   2    13.253655812726764       52.28819986930809        11.081138669036534       # Si
11   11   2    22.0890862686918         52.28819986930809        5.0                      # Si
12   12   2    22.0890862686918         52.28819986930809        11.081138669036534       # Si
13   13   2    30.925026853436048       52.28819986930809        5.0                      # Si
14   14   2    30.925026853436048       52.28819986930809        11.081138669036534       # Si
15   15   2    88.3568552035464         54.8388437653719         5.0                      # Si
16   16   2    88.3568552035464         54.8388437653719         11.081138669036534       # Si
17   17   2    97.19279578829067        54.8388437653719         5.0                      # Si
18   18   2    97.19279578829067        54.8388437653719         11.081138669036534       # Si
19   19   2    106.0282262442557        54.8388437653719         5.0                      # Si
20   20   2    106.0282262442557        54.8388437653719         11.081138669036534       # Si
21   21   2    8.835940584744248        54.8388437653719         5.0                      # Si
22   22   2    8.835940584744248        54.8388437653719         11.081138669036534       # Si
23   23   2    17.671371040709282       54.8388437653719         5.0                      # Si
24   24   2    17.671371040709282       54.8388437653719         11.081138669036534       # Si
25   25   2    26.50731162545353        54.8388437653719         5.0                      # Si
26   26   2    26.50731162545353        54.8388437653719         11.081138669036534       # Si
27   27   2    79.52142474758138        59.94013155749951        5.0                      # Si
28   28   2    79.52142474758138        59.94013155749951        11.081138669036534       # Si
29   29   2    88.3568552035464         59.94013155749951        5.0                      # Si
30   30   2    88.3568552035464         59.94013155749951        11.081138669036534       # Si
31   31   2    97.19279578829067        59.94013155749951        5.0                      # Si
32   32   2    97.19279578829067        59.94013155749951        11.081138669036534       # Si
33   33   2    106.0282262442557        59.94013155749951        5.0                      # Si
34   34   2    106.0282262442557        59.94013155749951        11.081138669036534       # Si
35   35   2    8.835940584744248        59.94013155749951        5.0                      # Si
36   36   2    8.835940584744248        59.94013155749951        11.081138669036534       # Si
37   37   2    17.671371040709282       59.94013155749951        5.0                      # Si
38   38   2    17.671371040709282       59.94013155749951        11.081138669036534       # Si
39   39   2    26.50731162545353        59.94013155749951        5.0                      # Si
40   40   2    26.50731162545353        59.94013155749951        11.081138669036534       # Si
41   41   2    35.342742081418564       59.94013155749951        5.0                      # Si
42   42   2    35.342742081418564       59.94013155749951        11.081138669036534       # Si
43   43   2    75.10319939081964        62.49077545356332        5.0                      # Si
44   44   2    75.10319939081964        62.49077545356332        11.081138669036534       # Si
45   45   2    83.93913997556389        62.49077545356332        5.0                      # Si
46   46   2    83.93913997556389        62.49077545356332        11.081138669036534       # Si
47   47   2    92.77457043152893        62.49077545356332        5.0                      # Si
48   48   2    92.77457043152893        62.49077545356332        11.081138669036534       # Si
49   49   2    101.61051101627318       62.49077545356332        5.0                      # Si
50   50   2    101.61051101627318       62.49077545356332        11.081138669036534       # Si
51   51   2    4.417715227982518        62.49077545356332        5.0                      # Si
52   52   2    4.417715227982518        62.49077545356332        11.081138669036534       # Si
53   53   2    13.253655812726764       62.49077545356332        5.0                      # Si
54   54   2    13.253655812726764       62.49077545356332        11.081138669036534       # Si
55   55   2    22.0890862686918         62.49077545356332        5.0                      # Si
56   56   2    22.0890862686918         62.49077545356332        11.081138669036534       # Si
57   57   2    30.925026853436048       62.49077545356332        5.0                      # Si
58   58   2    30.925026853436048       62.49077545356332        11.081138669036534       # Si
59   59   2    39.76045730940108        62.49077545356332        5.0                      # Si
60   60   2    39.76045730940108        62.49077545356332        11.081138669036534       # Si
61   61   2    66.26776893485462        67.59206324569094        5.0                      # Si
62   62   2    66.26776893485462        67.59206324569094        11.081138669036534       # Si
63   63   2    75.10319939081964        67.59206324569094        5.0                      # Si
64   64   2    75.10319939081964        67.59206324569094        11.081138669036534       # Si
65   65   2    83.93913997556389        67.59206324569094        5.0                      # Si
66   66   2    83.93913997556389        67.59206324569094        11.081138669036534       # Si
67   67   2    92.77457043152893        67.59206324569094        5.0                      # Si
68   68   2    92.77457043152893        67.59206324569094        11.081138669036534       # Si
69   69   2    101.61051101627318       67.59206324569094        5.0                      # Si
70   70   2    101.61051101627318       67.59206324569094        11.081138669036534       # Si
71   71   2    4.417715227982518        67.59206324569094        5.0                      # Si
72   72   2    4.417715227982518        67.59206324569094        11.081138669036534       # Si
73   73   2    13.253655812726764       67.59206324569094        5.0                      # Si
74   74   2    13.253655812726764       67.59206324569094        11.081138669036534       # Si
75   75   2    22.0890862686918         67.59206324569094        5.0                      # Si
76   76   2    22.0890862686918         67.59206324569094        11.081138669036534       # Si
77   77   2    30.925026853436048       67.59206324569094        5.0                      # Si
78   78   2    30.925026853436048       67.59206324569094        11.081138669036534       # Si
79   79   2    39.76045730940108        67.59206324569094        5.0                      # Si
80   80   2    39.76045730940108        67.59206324569094        11.081138669036534       # Si
81   81   2    48.59639789414533        67.59206324569094        5.0                      # Si
82   82   2    48.59639789414533        67.59206324569094        11.081138669036534       # Si
83   83   2    53.01411312212785        70.14270714175476        5.0                      # Si
84   84   2    53.01411312212785        70.14270714175476        11.081138669036534       # Si
85   85   2    61.850053706872096       70.14270714175476        5.0                      # Si
86   86   2    61.850053706872096       70.14270714175476        11.081138669036534       # Si
87   87   2    70.68548416283713        70.14270714175476        5.0                      # Si
88   88   2    70.68548416283713        70.14270714175476        11.081138669036534       # Si
89   89   2    79.52142474758138        70.14270714175476        5.0                      # Si
90   90   2    79.52142474758138        70.14270714175476        11.081138669036534       # Si
91   91   2    88.3568552035464         70.14270714175476        5.0                      # Si
92   92   2    88.3568552035464         70.14270714175476        11.081138669036534       # Si
93   93   2    97.19279578829067        70.14270714175476        5.0                      # Si
94   94   2    97.19279578829067        70.14270714175476        11.081138669036534       # Si
95   95   2    106.0282262442557        70.14270714175476        5.0                      # Si
96   96   2    106.0282262442557        70.14270714175476        11.081138669036534       # Si
97   97   2    8.835940584744248        70.14270714175476        5.0                      # Si
98   98   2    8.835940584744248        70.14270714175476        11.081138669036534       # Si
99   99   2    17.671371040709282       70.14270714175476        5.0                      # Si
100  100  2    17.671371040709282       70.14270714175476        11.081138669036534       # Si
101  101  2    26.50731162545353        70.14270714175476        5.0                      # Si
102  102  2    26.50731162545353        70.14270714175476        11.081138669036534       # Si
103  103  2    35.342742081418564       70.14270714175476        5.0                      # Si
104  104  2    35.342742081418564       70.14270714175476        11.081138669036534       # Si
105  105  2    44.178682666162814       70.14270714175476        5.0                      # Si
106  106  2    44.178682666162814       70.14270714175476        11.081138669036534       # Si
107  107  2    61.850053706872096       75.24399493388238        5.0                      # Si
108  108  2    61.850053706872096       75.24399493388238        11.081138669036534       # Si
109  109  2    70.68548416283713        75.24399493388238        5.0                      # Si
110  110  2    70.68548416283713        75.24399493388238        11.081138669036534       # Si
111  111  2    79.52142474758138        75.24399493388238        5.0                      # Si
112  112  2    79.52142474758138        75.24399493388238        11.081138669036534       # Si
113  113  2    88.3568552035464         75.24399493388238        5.0                      # Si
114  114  2    88.3568552035464         75.24399493388238        11.081138669036534       # Si
115  115  2    97.19279578829067        75.24399493388238        5.0                      # Si
116  116  2    97.19279578829067        75.24399493388238        11.081138669036534       # Si
117  117  2    106.0282262442557        75.24399493388238        5.0                      # Si
118  118  2    106.0282262442557        75.24399493388238        11.081138669036534       # Si
119  119  2    8.835940584744248        75.24399493388238        5.0                      # Si
120  120  2    8.835940584744248        75.24399493388238        11.081138669036534       # Si
121  121  2    17.671371040709282       75.24399493388238        5.0                      # Si
122  122  2    17.671371040709282       75.24399493388238        11.081138669036534       # Si
123  123  2    26.50731162545353        75.24399493388238        5.0                      # Si
124  124  2    26.50731162545353        75.24399493388238        11.081138669036534       # Si
125  125  2    35.342742081418564       75.24399493388238        5.0                      # Si
126  126  2    35.342742081418564       75.24399493388238        11.081138669036534       # Si
127  127  2    44.178682666162814       75.24399493388238        5.0                      # Si
128  128  2    44.178682666162814       75.24399493388238        11.081138669036534       # Si
129  129  2    53.01411312212785        75.24399493388238        5.0                      # Si
130  130  2    53.01411312212785        75.24399493388238        11.081138669036534       # Si
131  131  2    57.43182835011037        77.79463882994618        5.0                      # Si
132  132  2    57.43182835011037        77.79463882994618        11.081138669036534       # Si
133  133  2    66.26776893485462        77.79463882994618        5.0                      # Si
134  134  2    66.26776893485462        77.79463882994618        11.081138669036534       # Si
135  135  2    75.10319939081964        77.79463882994618        5.0                      # Si
136  136  2    75.10319939081964        77.79463882994618        11.081138669036534       # Si
137  137  2    83.93913997556389        77.79463882994618        5.0                      # Si
138  138  2    83.93913997556389        77.79463882994618        11.081138669036534       # Si
139  139  2    92.77457043152893        77.79463882994618        5.0                      # Si
140  140  2    92.77457043152893        77.79463882994618        11.081138669036534       # Si
141  141  2    101.61051101627318       77.79463882994618        5.0                      # Si
142  142  2    101.61051101627318       77.79463882994618        11.081138669036534       # Si
143  143  2    4.417715227982518        77.79463882994618        5.0                      # Si
144  144  2    4.417715227982518        77.79463882994618        11.081138669036534       # Si
145  145  2    13.253655812726764       77.79463882994618        5.0                      # Si
146  146  2    13.253655812726764       77.79463882994618        11.081138669036534       # Si
147  147  2    22.0890862686918         77.79463882994618        5.0                      # Si
148  148  2    22.0890862686918         77.79463882994618        11.081138669036534       # Si
149  149  2    30.925026853436048       77.79463882994618        5.0                      # Si
150  150  2    30.925026853436048       77.79463882994618        11.081138669036534       # Si
151  151  2    39.76045730940108        77.79463882994618        5.0                      # Si
152  152  2    39.76045730940108        77.79463882994618        11.081138669036534       # Si
153  153  2    48.59639789414533        77.79463882994618        5.0                      # Si
154  154  2    48.59639789414533        77.79463882994618        11.081138669036534       # Si
155  155  2    57.43182835011037        82.8959266220738         5.0                      # Si
156  156  2    57.43182835011037        82.8959266220738         11.081138669036534       # Si
157  157  2    66.26776893485462        82.8959266220738         5.0                      # Si
158  158  2    66.26776893485462        82.8959266220738         11.081138669036534       # Si
159  159  2    75.10319939081964        82.8959266220738         5.0                      # Si
160  160  2    75.10319939081964        82.8959266220738         11.081138669036534       # Si
161  161  2    83.93913997556389        82.8959266220738         5.0                      # Si
162  162  2    83.93913997556389        82.8959266220738         11.081138669036534       # Si
163  163  2    92.77457043152893        82.8959266220738         5.0                      # Si
164  164  2    92.77457043152893        82.8959266220738         11.081138669036534       # Si
165  165  2    101.61051101627318       82.8959266220738         5.0                      # Si
166  166  2    101.61051101627318       82.8959266220738         11.081138669036534       # Si
167  167  2    4.417715227982518        82.8959266220738         5.0                      # Si
168  168  2    4.417715227982518        82.8959266220738         11.081138669036534       # Si
169  169  2    13.253655812726764       82.8959266220738         5.0                      # Si
170  170  2    13.253655812726764       82.8959266220738         11.081138669036534       # Si
171  171  2    22.0890862686918         82.8959266220738         5.0                      # Si
172  172  2    22.0890862686918         82.8959266220738         11.081138669036534       # Si
173  173  2    30.925026853436048       82.8959266220738         5.0                      # Si
174  174  2    30.925026853436048       82.8959266220738         11.081138669036534       # Si
175  175  2    39.76045730940108        82.8959266220738         5.0                      # Si
176  176  2    39.76045730940108        82.8959266220738         11.081138669036534       # Si
177  177  2    48.59639789414533        82.8959266220738         5.0                      # Si
178  178  2    48.59639789414533        82.8959266220738         11.081138669036534       # Si
179  179  2    53.01411312212785        85.4465705181376         5.0                      # Si
180  180  2    53.01411312212785        85.4465705181376         11.081138669036534       # Si
181  181  2    61.850053706872096       85.4465705181376         5.0                      # Si
182  182  2    61.850053706872096       85.4465705181376         11.081138669036534       # Si
183  183  2    70.68548416283713        85.4465705181376         5.0                      # Si
184  184  2    70.68548416283713        85.4465705181376         11.081138669036534       # Si
185  185  2    79.52142474758138        85.4465705181376         5.0                      # Si
186  186  2    79.52142474758138        85.4465705181376         11.081138669036534       # Si
187  187  2    88.3568552035464         85.4465705181376         5.0                      # Si
188  188  2    88.3568552035464         85.4465705181376         11.081138669036534       # Si
189  189  2    97.19279578829067        85.4465705181376         5.0                      # Si
190  190  2    97.19279578829067        85.4465705181376         11.081138669036534       # Si
191  191  2    106.0282262442557        85.4465705181376         5.0                      # Si
192  192  2    106.0282262442557        85.4465705181376         11.081138669036534       # Si
193  193  2    8.835940584744248        85.4465705181376         5.0                      # Si
194  194  2    8.835940584744248        85.4465705181376         11.081138669036534       # Si
195  195  2    17.671371040709282       85.4465705181376         5.0                      # Si
196  196  2    17.671371040709282       85.4465705181376         11.081138669036534       # Si
197  197  2    26.50731162545353        85.4465705181376         5.0                      # Si
198  198  2    26.50731162545353        85.4465705181376         11.081138669036534       # Si
199  199  2    35.342742081418564       85.4465705181376         5.0                      # Si
200  200  2    35.342742081418564       85.4465705181376         11.081138669036534       # Si
201  201  2    44.178682666162814       85.4465705181376         5.0                      # Si
202  202  2    44.178682666162814       85.4465705181376         11.081138669036534       # Si
203  203  2    61.850053706872096       90.54785831026523        5.0                      # Si
204  204  2    61.850053706872096       90.54785831026523        11.081138669036534       # Si
205  205  2    70.68548416283713        90.54785831026523        5.0                      # Si
206  206  2    70.68548416283713        90.54785831026523        11.081138669036534       # Si
207  207  2    79.52142474758138        90.54785831026523        5.0                      # Si
208  208  2    79.52142474758138        90.54785831026523        11.081138669036534       # Si
209  209  2    88.3568552035464         90.54785831026523        5.0                      # Si
210  210  2    88.3568552035464         90.54785831026523        11.081138669036534       # Si
211  211  2    97.19279578829067        90.54785831026523        5.0                      # Si
212  212  2    97.19279578829067        90.54785831026523        11.081138669036534       # Si
213  213  2    106.0282262442557        90.54785831026523        5.0                      # Si
214  214  2    106.0282262442557        90.54785831026523        11.081138669036534       # Si
215  215  2    8.835940584744248        90.54785831026523        5.0                      # Si
216  216  2    8.835940584744248        90.54785831026523        11.081138669036534       # Si
217  217  2    17.671371040709282       90.54785831026523        5.0                      # Si
218  218  2    17.671371040709282       90.54785831026523        11.081138669036534       # Si
219  219  2    26.50731162545353        90.54785831026523        5.0                      # Si
220  220  2    26.50731162545353        90.54785831026523        11.081138669036534       # Si
221  221  2    35.342742081418564       90.54785831026523        5.0                      # Si
222  222  2    35.342742081418564       90.54785831026523        11.081138669036534       # Si
223  223  2    44.178682666162814       90.54785831026523        5.0                      # Si
224  224  2    44.178682666162814       90.54785831026523        11.081138669036534       # Si
225  225  2    53.01411312212785        90.54785831026523        5.0                      # Si
226  226  2    53.01411312212785        90.54785831026523        11.081138669036534       # Si
227  227  2    57.43182835011037        1.2753219480319047       5.0                      # Si
228  228  2    57.43182835011037        1.2753219480319047       11.081138669036534       # Si
229  229  2    66.26776893485462        1.2753219480319047       5.0                      # Si
230  230  2    66.26776893485462        1.2753219480319047       11.081138669036534       # Si
231  231  2    75.10319939081964        1.2753219480319047       5.0                      # Si
232  232  2    75.10319939081964        1.2753219480319047       11.081138669036534       # Si
233  233  2    83.93913997556389        1.2753219480319047       5.0                      # Si
234  234  2    83.93913997556389        1.2753219480319047       11.081138669036534       # Si
235  235  2    92.77457043152893        1.2753219480319047       5.0                      # Si
236  236  2    92.77457043152893        1.2753219480319047       11.081138669036534       # Si
237  237  2    101.61051101627318       1.2753219480319047       5.0                      # Si
238  238  2    101.61051101627318       1.2753219480319047       11.081138669036534       # Si
239  239  2    4.417715227982518        1.2753219480319047       5.0                      # Si
240  240  2    4.417715227982518        1.2753219480319047       11.081138669036534       # Si
241  241  2    13.253655812726764       1.2753219480319047       5.0                      # Si
242  242  2    13.253655812726764       1.2753219480319047       11.081138669036534       # Si
243  243  2    22.0890862686918         1.2753219480319047       5.0                      # Si
244  244  2    22.0890862686918         1.2753219480319047       11.081138669036534       # Si
245  245  2    30.925026853436048       1.2753219480319047       5.0                      # Si
246  246  2    30.925026853436048       1.2753219480319047       11.081138669036534       # Si
247  247  2    39.76045730940108        1.2753219480319047       5.0                      # Si
248  248  2    39.76045730940108        1.2753219480319047       11.081138669036534       # Si
249  249  2    48.59639789414533        1.2753219480319047       5.0                      # Si
250  250  2    48.59639789414533        1.2753219480319047       11.081138669036534       # Si
251  251  2    57.43182835011037        6.376609740159523        5.0                      # Si
252  252  2    57.43182835011037        6.376609740159523        11.081138669036534       # Si
253  253  2    66.26776893485462        6.376609740159523        5.0                      # Si
254  254  2    66.26776893485462        6.376609740159523        11.081138669036534       # Si
255  255  2    75.10319939081964        6.376609740159523        5.0                      # Si
256  256  2    75.10319939081964        6.376609740159523        11.081138669036534       # Si
257  257  2    83.93913997556389        6.376609740159523        5.0                      # Si
258  258  2    83.93913997556389        6.376609740159523        11.081138669036534       # Si
259  259  2    92.77457043152893        6.376609740159523        5.0                      # Si
260  260  2    92.77457043152893        6.376609740159523        11.081138669036534       # Si
261  261  2    101.61051101627318       6.376609740159523        5.0                      # Si
262  262  2    101.61051101627318       6.376609740159523        11.081138669036534       # Si
263  263  2    4.417715227982518        6.376609740159523        5.0                      # Si
264  264  2    4.417715227982518        6.376609740159523        11.081138669036534       # Si
265  265  2    13.253655812726764       6.376609740159523        5.0                      # Si
266  266  2    13.253655812726764       6.376609740159523        11.081138669036534       # Si
267  267  2    22.0890862686918         6.376609740159523        5.0                      # Si
268  268  2    22.0890862686918         6.376609740159523        11.081138669036534       # Si
269  269  2    30.925026853436048       6.376609740159523        5.0                      # Si
270  270  2    30.925026853436048       6.376609740159523        11.081138669036534       # Si
271  271  2    39.76045730940108        6.376609740159523        5.0                      # Si
272  272  2    39.76045730940108        6.376609740159523        11.081138669036534       # Si
273  273  2    48.59639789414533        6.376609740159523        5.0                      # Si
274  274  2    48.59639789414533        6.376609740159523        11.081138669036534       # Si
275  275  2    53.01411312212785        8.927253636223332        5.0                      # Si
276  276  2    53.01411312212785        8.927253636223332        11.081138669036534       # Si
277  277  2    61.850053706872096       8.927253636223332        5.0                      # Si
278  278  2    61.850053706872096       8.927253636223332        11.081138669036534       # Si
279  279  2    70.68548416283713        8.927253636223332        5.0                      # Si
280  280  2    70.68548416283713        8.927253636223332        11.081138669036534       # Si
281  281  2    79.52142474758138        8.927253636223332        5.0                      # Si
282  282  2    79.52142474758138        8.927253636223332        11.081138669036534       # Si
283  283  2    88.3568552035464         8.927253636223332        5.0                      # Si
284  284  2    88.3568552035464         8.927253636223332        11.081138669036534       # Si
285  285  2    97.19279578829067        8.927253636223332        5.0                      # Si
286  286  2    97.19279578829067        8.927253636223332        11.081138669036534       # Si
287  287  2    106.0282262442557        8.927253636223332        5.0                      # Si
288  288  2    106.0282262442557        8.927253636223332        11.081138669036534       # Si
289  289  2    8.835940584744248        8.927253636223332        5.0                      # Si
290  290  2    8.835940584744248        8.927253636223332        11.081138669036534       # Si
291  291  2    17.671371040709282       8.927253636223332        5.0                      # Si
292  292  2    17.671371040709282       8.927253636223332        11.081138669036534       # Si
293  293  2    26.50731162545353        8.927253636223332        5.0                      # Si
294  294  2    26.50731162545353        8.927253636223332        11.081138669036534       # Si
295  295  2    35.342742081418564       8.927253636223332        5.0                      # Si
296  296  2    35.342742081418564       8.927253636223332        11.081138669036534       # Si
297  297  2    44.178682666162814       8.927253636223332        5.0                      # Si
298  298  2    44.178682666162814       8.927253636223332        11.081138669036534       # Si
299  299  2    61.850053706872096       14.028541428350948       5.0                      # Si
300  300  2    61.850053706872096       14.028541428350948       11.081138669036534       # Si
301  301  2    70.68548416283713        14.028541428350948       5.0                      # Si
302  302  2    70.68548416283713        14.028541428350948       11.081138669036534       # Si
303  303  2    79.52142474758138        14.028541428350948       5.0                      # Si
304  304  2    79.52142474758138        14.028541428350948       11.081138669036534       # Si
305  305  2    88.3568552035464         14.028541428350948       5.0                      # Si
306  306  2    88.3568552035464         14.028541428350948       11.081138669036534       # Si
307  307  2    97.19279578829067        14.028541428350948       5.0                      # Si
308  308  2    97.19279578829067        14.028541428350948       11.081138669036534       # Si
309  309  2    106.0282262442557        14.028541428350948       5.0                      # Si
310  310  2    106.0282262442557        14.028541428350948       11.081138669036534       # Si
311  311  2    8.835940584744248        14.028541428350948       5.0                      # Si