DATA FILE Produced from netmc results (cf David Morley)
635 atoms
1524 bonds
0 angles
0 dihedrals
0 impropers
2 atom types
2 bond types
0 angle types
0 dihedral types
0 improper types
0.00000 111.91057827571964 xlo xhi
0.00000 96.91740229732258 ylo yhi

# Pair Coeffs
#
# 1  O
# 2  Si

# Bond Coeffs
# 
# 1  O-O
# 2  Si-O
# 3  O-O rep
# 4  Si-Si rep

 Masses

1 28.10000 # O 
2 32.01000 # Si

 Atoms # molecular

1    1    2    88.5959664500719         55.18907630819758        5.0                      # Si
2    2    2    97.92157427112538        55.18907630819758        5.0                      # Si
3    3    2    107.24772052219163       55.18907630819758        5.0                      # Si
4    4    2    4.662803910526741        55.18907630819758        5.0                      # Si
5    5    2    13.988950161592989       55.18907630819758        5.0                      # Si
6    6    2    23.314557982646466       55.18907630819758        5.0                      # Si
7    7    2    32.64070423371271        55.18907630819758        5.0                      # Si
8    8    2    83.93316253954517        57.881226372012094       5.0                      # Si
9    9    2    93.25877036059865        57.881226372012094       5.0                      # Si
10   10   2    102.5849166116649        57.881226372012094       5.0                      # Si
11   11   2    111.91052443271838       57.881226372012094       5.0                      # Si
12   12   2    9.326146251066247        57.881226372012094       5.0                      # Si
13   13   2    18.65175407211973        57.881226372012094       5.0                      # Si
14   14   2    27.977900323185978       57.881226372012094       5.0                      # Si
15   15   2    37.30350814423946        57.881226372012094       5.0                      # Si
16   16   2    83.93316253954517        63.265526499641126       5.0                      # Si
17   17   2    93.25877036059865        63.265526499641126       5.0                      # Si
18   18   2    102.5849166116649        63.265526499641126       5.0                      # Si
19   19   2    111.91052443271838       63.265526499641126       5.0                      # Si
20   20   2    9.326146251066247        63.265526499641126       5.0                      # Si
21   21   2    18.65175407211973        63.265526499641126       5.0                      # Si
22   22   2    27.977900323185978       63.265526499641126       5.0                      # Si
23   23   2    37.30350814423946        63.265526499641126       5.0                      # Si
24   24   2    79.26982019900566        65.95767656345564        5.0                      # Si
25   25   2    88.5959664500719         65.95767656345564        5.0                      # Si
26   26   2    97.92157427112538        65.95767656345564        5.0                      # Si
27   27   2    107.24772052219163       65.95767656345564        5.0                      # Si
28   28   2    4.662803910526741        65.95767656345564        5.0                      # Si
29   29   2    13.988950161592989       65.95767656345564        5.0                      # Si
30   30   2    23.314557982646466       65.95767656345564        5.0                      # Si
31   31   2    32.64070423371271        65.95767656345564        5.0                      # Si
32   32   2    41.9663120547662         65.95767656345564        5.0                      # Si
33   33   2    69.94421237795217        71.34197669108467        5.0                      # Si
34   34   2    79.26982019900566        71.34197669108467        5.0                      # Si
35   35   2    88.5959664500719         71.34197669108467        5.0                      # Si
36   36   2    97.92157427112538        71.34197669108467        5.0                      # Si
37   37   2    107.24772052219163       71.34197669108467        5.0                      # Si
38   38   2    4.662803910526741        71.34197669108467        5.0                      # Si
39   39   2    13.988950161592989       71.34197669108467        5.0                      # Si
40   40   2    23.314557982646466       71.34197669108467        5.0                      # Si
41   41   2    32.64070423371271        71.34197669108467        5.0                      # Si
42   42   2    41.9663120547662         71.34197669108467        5.0                      # Si
43   43   2    51.29245830583245        71.34197669108467        5.0                      # Si
44   44   2    55.95526221635919        74.03412675489919        5.0                      # Si
45   45   2    65.28140846742542        74.03412675489919        5.0                      # Si
46   46   2    74.60701628847892        74.03412675489919        5.0                      # Si
47   47   2    83.93316253954517        74.03412675489919        5.0                      # Si
48   48   2    93.25877036059865        74.03412675489919        5.0                      # Si
49   49   2    102.5849166116649        74.03412675489919        5.0                      # Si
50   50   2    111.91052443271838       74.03412675489919        5.0                      # Si
51   51   2    9.326146251066247        74.03412675489919        5.0                      # Si
52   52   2    18.65175407211973        74.03412675489919        5.0                      # Si
53   53   2    27.977900323185978       74.03412675489919        5.0                      # Si
54   54   2    37.30350814423946        74.03412675489919        5.0                      # Si
55   55   2    46.6296543953057         74.03412675489919        5.0                      # Si
56   56   2    65.28140846742542        79.41842688252822        5.0                      # Si
57   57   2    74.60701628847892        79.41842688252822        5.0                      # Si
58   58   2    83.93316253954517        79.41842688252822        5.0                      # Si
59   59   2    93.25877036059865        79.41842688252822        5.0                      # Si
60   60   2    102.5849166116649        79.41842688252822        5.0                      # Si
61   61   2    111.91052443271838       79.41842688252822        5.0                      # Si
62   62   2    9.326146251066247        79.41842688252822        5.0                      # Si
63   63   2    18.65175407211973        79.41842688252822        5.0                      # Si
64   64   2    27.977900323185978       79.41842688252822        5.0                      # Si
65   65   2    37.30350814423946        79.41842688252822        5.0                      # Si
66   66   2    46.6296543953057         79.41842688252822        5.0                      # Si
67   67   2    55.95526221635919        79.41842688252822        5.0                      # Si
68   68   2    60.61806612688592        82.11057694634273        5.0                      # Si
69   69   2    69.94421237795217        82.11057694634273        5.0                      # Si
70   70   2    79.26982019900566        82.11057694634273        5.0                      # Si
71   71   2    88.5959664500719         82.11057694634273        5.0                      # Si
72   72   2    97.92157427112538        82.11057694634273        5.0                      # Si
73   73   2    107.24772052219163       82.11057694634273        5.0                      # Si
74   74   2    4.662803910526741        82.11057694634273        5.0                      # Si
75   75   2    13.988950161592989       82.11057694634273        5.0                      # Si
76   76   2    23.314557982646466       82.11057694634273        5.0                      # Si
77   77   2    32.64070423371271        82.11057694634273        5.0                      # Si
78   78   2    41.9663120547662         82.11057694634273        5.0                      # Si
79   79   2    51.29245830583245        82.11057694634273        5.0                      # Si
80   80   2    60.61806612688592        87.49487707397176        5.0                      # Si
81   81   2    69.94421237795217        87.49487707397176        5.0                      # Si
82   82   2    79.26982019900566        87.49487707397176        5.0                      # Si
83   83   2    88.5959664500719         87.49487707397176        5.0                      # Si
84   84   2    97.92157427112538        87.49487707397176        5.0                      # Si
85   85   2    107.24772052219163       87.49487707397176        5.0                      # Si
86   86   2    4.662803910526741        87.49487707397176        5.0                      # Si
87   87   2    13.988950161592989       87.49487707397176        5.0                      # Si
88   88   2    23.314557982646466       87.49487707397176        5.0                      # Si
89   89   2    32.64070423371271        87.49487707397176        5.0                      # Si
90   90   2    41.9663120547662         87.49487707397176        5.0                      # Si
91   91   2    51.29245830583245        87.49487707397176        5.0                      # Si
92   92   2    55.95526221635919        90.18702713778627        5.0                      # Si
93   93   2    65.28140846742542        90.18702713778627        5.0                      # Si
94   94   2    74.60701628847892        90.18702713778627        5.0                      # Si
95   95   2    83.93316253954517        90.18702713778627        5.0                      # Si
96   96   2    93.25877036059865        90.18702713778627        5.0                      # Si
97   97   2    102.5849166116649        90.18702713778627        5.0                      # Si
98   98   2    111.91052443271838       90.18702713778627        5.0                      # Si
99   99   2    9.326146251066247        90.18702713778627        5.0                      # Si
100  100  2    18.65175407211973        90.18702713778627        5.0                      # Si
101  101  2    27.977900323185978       90.18702713778627        5.0                      # Si
102  102  2    37.30350814423946        90.18702713778627        5.0                      # Si
103  103  2    46.6296543953057         90.18702713778627        5.0                      # Si
104  104  2    65.28140846742542        95.5713272654153         5.0                      # Si
105  105  2    74.60701628847892        95.5713272654153         5.0                      # Si
106  106  2    83.93316253954517        95.5713272654153         5.0                      # Si
107  107  2    93.25877036059865        95.5713272654153         5.0                      # Si
108  108  2    102.5849166116649        95.5713272654153         5.0                      # Si
109  109  2    111.91052443271838       95.5713272654153         5.0                      # Si
110  110  2    9.326146251066247        95.5713272654153         5.0                      # Si
111  111  2    18.65175407211973        95.5713272654153         5.0                      # Si
112  112  2    27.977900323185978       95.5713272654153         5.0                      # Si
113  113  2    37.30350814423946        95.5713272654153         5.0                      # Si
114  114  2    46.6296543953057         95.5713272654153         5.0                      # Si
115  115  2    55.95526221635919        95.5713272654153         5.0                      # Si
116  116  2    60.61806612688592        1.3460750319072579       5.0                      # Si
117  117  2    69.94421237795217        1.3460750319072579       5.0                      # Si
118  118  2    79.26982019900566        1.3460750319072579       5.0                      # Si
119  119  2    88.5959664500719         1.3460750319072579       5.0                      # Si
120  120  2    97.92157427112538        1.3460750319072579       5.0                      # Si
121  121  2    107.24772052219163       1.3460750319072579       5.0                      # Si
122  122  2    4.662803910526741        1.3460750319072579       5.0                      # Si
123  123  2    13.988950161592989       1.3460750319072579       5.0                      # Si
124  124  2    23.314557982646466       1.3460750319072579       5.0                      # Si
125  125  2    32.64070423371271        1.3460750319072579       5.0                      # Si
126  126  2    41.9663120547662         1.3460750319072579       5.0                      # Si
127  127  2    51.29245830583245        1.3460750319072579       5.0                      # Si
128  128  2    60.61806612688592        6.7303751595362895       5.0                      # Si
129  129  2    69.94421237795217        6.7303751595362895       5.0                      # Si
130  130  2    79.26982019900566        6.7303751595362895       5.0                      # Si
131  131  2    88.5959664500719         6.7303751595362895       5.0                      # Si
132  132  2    97.92157427112538        6.7303751595362895       5.0                      # Si
133  133  2    107.24772052219163       6.7303751595362895       5.0                      # Si
134  134  2    4.662803910526741        6.7303751595362895       5.0                      # Si
135  135  2    13.988950161592989       6.7303751595362895       5.0                      # Si
136  136  2    23.314557982646466       6.7303751595362895       5.0                      # Si
137  137  2    32.64070423371271        6.7303751595362895       5.0                      # Si
138  138  2    41.9663120547662         6.7303751595362895       5.0                      # Si
139  139  2    51.29245830583245        6.7303751595362895       5.0                      # Si
140  140  2    55.95526221635919        9.422525223350805        5.0                      # Si
141  141  2    65.28140846742542        9.422525223350805        5.0                      # Si
142  142  2    74.60701628847892        9.422525223350805        5.0                      # Si
143  143  2    83.93316253954517        9.422525223350805        5.0                      # Si
144  144  2    93.25877036059865        9.422525223350805        5.0                      # Si
145  145  2    102.5849166116649        9.422525223350805        5.0                      # Si
146  146  2    111.91052443271838       9.422525223350805        5.0                      # Si
147  147  2    9.326146251066247        9.422525223350805        5.0                      # Si
148  148  2    18.65175407211973        9.422525223350805        5.0                      # Si
149  149  2    27.977900323185978       9.422525223350805        5.0                      # Si
150  150  2    37.30350814423946        9.422525223350805        5.0                      # Si
151  151  2    46.6296543953057         9.422525223350805        5.0                      # Si
152  152  2    65.28140846742542        14.806825350979837       5.0                      # Si
153  153  2    74.60701628847892        14.806825350979837       5.0                      # Si
154  154  2    83.93316253954517        14.806825350979837       5.0                      # Si
155  155  2    93.25877036059865        14.806825350979837       5.0                      # Si
156  156  2    102.5849166116649        14.806825350979837       5.0                      # Si
157  157  2    111.91052443271838       14.806825350979837       5.0                      # Si
158  158  2    9.326146251066247        14.806825350979837       5.0                      # Si
159  159  2    18.65175407211973        14.806825350979837       5.0                      # Si
160  160  2    27.977900323185978       14.806825350979837       5.0                      # Si
161  161  2    37.30350814423946        14.806825350979837       5.0                      # Si
162  162  2    46.6296543953057         14.806825350979837       5.0                      # Si
163  163  2    55.95526221635919        14.806825350979837       5.0                      # Si
164  164  2    60.61806612688592        17.49897541479435        5.0                      # Si
165  165  2    69.94421237795217        17.49897541479435        5.0                      # Si
166  166  2    79.26982019900566        17.49897541479435        5.0                      # Si
167  167  2    88.5959664500719         17.49897541479435        5.0                      # Si
168  168  2    97.92157427112538        17.49897541479435        5.0                      # Si
169  169  2    107.24772052219163       17.49897541479435        5.0                      # Si
170  170  2    4.662803910526741        17.49897541479435        5.0                      # Si
171  171  2    13.988950161592989       17.49897541479435        5.0                      # Si
172  172  2    23.314557982646466       17.49897541479435        5.0                      # Si
173  173  2    32.64070423371271        17.49897541479435        5.0                      # Si
174  174  2    41.9663120547662         17.49897541479435        5.0                      # Si
175  175  2    51.29245830583245        17.49897541479435        5.0                      # Si
176  176  2    60.61806612688592        22.883275542423384       5.0                      # Si
177  177  2    69.94421237795217        22.883275542423384       5.0                      # Si
178  178  2    79.26982019900566        22.883275542423384       5.0                      # Si
179  179  2    88.5959664500719         22.883275542423384       5.0                      # Si
180  180  2    97.92157427112538        22.883275542423384       5.0                      # Si
181  181  2    107.24772052219163       22.883275542423384       5.0                      # Si
182  182  2    4.662803910526741        22.883275542423384       5.0                      # Si
183  183  2    13.988950161592989       22.883275542423384       5.0                      # Si
184  184  2    23.314557982646466       22.883275542423384       5.0                      # Si
185  185  2    32.64070423371271        22.883275542423384       5.0                      # Si
186  186  2    41.9663120547662         22.883275542423384       5.0                      # Si
187  187  2    51.29245830583245        22.883275542423384       5.0                      # Si
188  188  2    55.95526221635919        25.575425606237904       5.0                      # Si
189  189  2    65.28140846742542        25.575425606237904       5.0                      # Si
190  190  2    74.60701628847892        25.575425606237904       5.0                      # Si
191  191  2    83.93316253954517        25.575425606237904       5.0                      # Si
192  192  2    93.25877036059865        25.575425606237904       5.0                      # Si
193  193  2    102.5849166116649        25.575425606237904       5.0                      # Si
194  194  2    111.91052443271838       25.575425606237904       5.0                      # Si
195  195  2    9.326146251066247        25.575425606237904       5.0                      # Si
196  196  2    18.65175407211973        25.575425606237904       5.0                      # Si
197  197  2    27.977900323185978       25.575425606237904       5.0                      # Si
198  198  2    37.30350814423946        25.575425606237904       5.0                      # Si
199  199  2    46.6296543953057         25.575425606237904       5.0                      # Si
200  200  2    65.28140846742542        30.959725733866932       5.0                      # Si
201  201  2    74.60701628847892        30.959725733866932       5.0                      # Si
202  202  2    83.93316253954517        30.959725733866932       5.0                      # Si
203  203  2    93.25877036059865        30.959725733866932       5.0                      # Si
204  204  2    102.5849166116649        30.959725733866932       5.0                      # Si
205  205  2    111.91052443271838       30.959725733866932       5.0                      # Si
206  206  2    9.326146251066247        30.959725733866932       5.0                      # Si
207  207  2    18.65175407211973        30.959725733866932       5.0                      # Si
208  208  2    27.977900323185978       30.959725733866932       5.0                      # Si
209  209  2    37.30350814423946        30.959725733866932       5.0                      # Si
210  210  2    46.6296543953057         30.959725733866932       5.0                      # Si
211  211  2    55.95526221635919        30.959725733866932       5.0                      # Si
212  212  2    69.94421237795217        33.65187579768145        5.0                      # Si
213  213  2    79.26982019900566        33.65187579768145        5.0                      # Si
214  214  2    88.5959664500719         33.65187579768145        5.0                      # Si
215  215  2    97.92157427112538        33.65187579768145        5.0                      # Si
216  216  2    107.24772052219163       33.65187579768145        5.0                      # Si
217  217  2    4.662803910526741        33.65187579768145        5.0                      # Si
218  218  2    13.988950161592989       33.65187579768145        5.0                      # Si
219  219  2    23.314557982646466       33.65187579768145        5.0                      # Si
220  220  2    32.64070423371271        33.65187579768145        5.0                      # Si
221  221  2    41.9663120547662         33.65187579768145        5.0                      # Si
222  222  2    51.29245830583245        33.65187579768145        5.0                      # Si
223  223  2    79.26982019900566        39.03617592531048        5.0                      # Si
224  224  2    88.5959664500719         39.03617592531048        5.0                      # Si
225  225  2    97.92157427112538        39.03617592531048        5.0                      # Si
226  226  2    107.24772052219163       39.03617592531048        5.0                      # Si
227  227  2    4.662803910526741        39.03617592531048        5.0                      # Si
228  228  2    13.988950161592989       39.03617592531048        5.0                      # Si
229  229  2    23.314557982646466       39.03617592531048        5.0                      # Si
230  230  2    32.64070423371271        39.03617592531048        5.0                      # Si
231  231  2    41.9663120547662         39.03617592531048        5.0                      # Si
232  232  2    83.93316253954517        41.728325989125          5.0                      # Si
233  233  2    93.25877036059865        41.728325989125          5.0                      # Si
234  234  2    102.5849166116649        41.728325989125          5.0                      # Si
235  235  2    111.91052443271838       41.728325989125          5.0                      # Si
236  236  2    9.326146251066247        41.728325989125          5.0                      # Si
237  237  2    18.65175407211973        41.728325989125          5.0                      # Si
238  238  2    27.977900323185978       41.728325989125          5.0                      # Si
239  239  2    37.30350814423946        41.728325989125          5.0                      # Si
240  240  2    83.93316253954517        47.11262611675403        5.0                      # Si
241  241  2    93.25877036059865        47.11262611675403        5.0                      # Si
242  242  2    102.5849166116649        47.11262611675403        5.0                      # Si
243  243  2    111.91052443271838       47.11262611675403        5.0                      # Si
244  244  2    9.326146251066247        47.11262611675403        5.0                      # Si
245  245  2    18.65175407211973        47.11262611675403        5.0                      # Si
246  246  2    27.977900323185978       47.11262611675403        5.0                      # Si
247  247  2    37.30350814423946        47.11262611675403        5.0                      # Si
248  248  2    88.5959664500719         49.804776180568545       5.0                      # Si
249  249  2    97.92157427112538        49.804776180568545       5.0                      # Si
250  250  2    107.24772052219163       49.804776180568545       5.0                      # Si
251  251  2    4.662803910526741        49.804776180568545       5.0                      # Si
252  252  2    13.988950161592989       49.804776180568545       5.0                      # Si
253  253  2    23.314557982646466       49.804776180568545       5.0                      # Si
254  254  2    32.64070423371271        49.804776180568545       5.0                      # Si
255  255  1    86.26456449480852        56.53515134010483        5.0                      # O
256  256  1    90.67736840533527        56.96816404199705        5.0                      # O
257  257  1    89.0959664500719         52.49692624438306        5.0                      # O
258  258  1    95.59017231586202        56.53515134010483        5.0                      # O
259  259  1    100.00324544139514       56.96816404199705        5.0                      # O
260  260  1    98.42157427112538        52.49692624438306        5.0                      # O
261  261  1    104.91631856692825       56.53515134010483        5.0                      # O
262  262  1    109.329122477455         56.96816404199705        5.0                      # O
263  263  1    107.74772052219163       52.49692624438306        5.0                      # O
264  264  1    2.3313750337627335       56.53515134010483        5.0                      # O
265  265  1    6.744475080796494        56.96816404199705        5.0                      # O
266  266  1    5.162803910526741        52.49692624438306        5.0                      # O
267  267  1    11.657548206329619       56.53515134010483        5.0                      # O
268  268  1    16.07035211685636        56.96816404199705        5.0                      # O
269  269  1    14.488950161592989       52.49692624438306        5.0                      # O
270  270  1    20.983156027383096       56.53515134010483        5.0                      # O
271  271  1    25.39622915291622        56.96816404199705        5.0                      # O
272  272  1    23.814557982646466       52.49692624438306        5.0                      # O
273  273  1    30.309302278449344       56.53515134010483        5.0                      # O
274  274  1    34.722106188976085       56.96816404199705        5.0                      # O
275  275  1    33.14070423371271        52.49692624438306        5.0                      # O
276  276  1    84.43316253954517        60.57337643582661        5.0                      # O
277  277  1    84.43316253954517        52.49692624438306        5.0                      # O
278  278  1    93.75877036059865        60.57337643582661        5.0                      # O
279  279  1    103.0849166116649        60.57337643582661        5.0                      # O
280  280  1    0.4999461569987318       60.57337643582661        5.0                      # O
281  281  1    9.826146251066247        60.57337643582661        5.0                      # O
282  282  1    19.15175407211973        60.57337643582661        5.0                      # O
283  283  1    28.477900323185978       60.57337643582661        5.0                      # O
284  284  1    37.80350814423946        60.57337643582661        5.0                      # O
285  285  1    37.80350814423946        52.49692624438306        5.0                      # O
286  286  1    81.60149136927541        64.61160153154839        5.0                      # O
287  287  1    86.01456449480852        65.04461423344061        5.0                      # O
288  288  1    90.92736840533527        64.61160153154839        5.0                      # O
289  289  1    95.34017231586202        65.04461423344061        5.0                      # O
290  290  1    100.25324544139514       64.61160153154839        5.0                      # O
291  291  1    104.66631856692825       65.04461423344061        5.0                      # O
292  292  1    109.579122477455         64.61160153154839        5.0                      # O
293  293  1    2.0813750337627397       65.04461423344061        5.0                      # O
294  294  1    6.994475080796494        64.61160153154839        5.0                      # O
295  295  1    11.407548206329619       65.04461423344061        5.0                      # O
296  296  1    16.32035211685636        64.61160153154839        5.0                      # O
297  297  1    20.733156027383096       65.04461423344061        5.0                      # O
298  298  1    25.64622915291622        64.61160153154839        5.0                      # O
299  299  1    30.059302278449344       65.04461423344061        5.0                      # O
300  300  1    34.972106188976085       64.61160153154839        5.0                      # O
301  301  1    39.38491009950283        65.04461423344061        5.0                      # O
302  302  1    79.76982019900566        68.64982662727016        5.0                      # O
303  303  1    74.60701628847892        68.64982662727016        5.0                      # O
304  304  1    89.0959664500719         68.64982662727016        5.0                      # O
305  305  1    98.42157427112538        68.64982662727016        5.0                      # O
306  306  1    107.74772052219163       68.64982662727016        5.0                      # O
307  307  1    5.162803910526741        68.64982662727016        5.0                      # O
308  308  1    14.488950161592989       68.64982662727016        5.0                      # O
309  309  1    23.814557982646466       68.64982662727016        5.0                      # O
310  310  1    33.14070423371271        68.64982662727016        5.0                      # O
311  311  1    42.4663120547662         68.64982662727016        5.0                      # O
312  312  1    46.37938518029932        69.08283932916238        5.0                      # O