DATA FILE Produced from netmc results (cf David Morley)
1524 atoms
5080 bonds
0 angles
0 dihedrals
0 impropers
2 atom types
0 bond types
2 bond types
0 angle types
0 dihedral types
0 improper types
0.00000 111.91057827571964 xlo xhi
0.00000 96.91740229732258 ylo yhi
0.0000 200.0000 zlo zhi

# Pair Coeffs
#
# 1  O
# 2  Si

# Bond Coeffs
# 
# 1  O-O
# 2  Si-O
# 3  O-O rep
# 4  Si-Si rep

 Masses

1 28.10000 # O 
2 32.01000 # Si

 Atoms # molecular

1    1    2    88.5959664500719         55.18907630819758        5.0                      # Si
2    2    2    88.5959664500719         55.18907630819758        11.081138669036534       # Si
3    3    2    97.92157427112538        55.18907630819758        5.0                      # Si
4    4    2    97.92157427112538        55.18907630819758        11.081138669036534       # Si
5    5    2    107.24772052219163       55.18907630819758        5.0                      # Si
6    6    2    107.24772052219163       55.18907630819758        11.081138669036534       # Si
7    7    2    4.662803910526741        55.18907630819758        5.0                      # Si
8    8    2    4.662803910526741        55.18907630819758        11.081138669036534       # Si
9    9    2    13.988950161592989       55.18907630819758        5.0                      # Si
10   10   2    13.988950161592989       55.18907630819758        11.081138669036534       # Si
11   11   2    23.314557982646466       55.18907630819758        5.0                      # Si
12   12   2    23.314557982646466       55.18907630819758        11.081138669036534       # Si
13   13   2    32.64070423371271        55.18907630819758        5.0                      # Si
14   14   2    32.64070423371271        55.18907630819758        11.081138669036534       # Si
15   15   2    83.93316253954517        57.881226372012094       5.0                      # Si
16   16   2    83.93316253954517        57.881226372012094       11.081138669036534       # Si
17   17   2    93.25877036059865        57.881226372012094       5.0                      # Si
18   18   2    93.25877036059865        57.881226372012094       11.081138669036534       # Si
19   19   2    102.5849166116649        57.881226372012094       5.0                      # Si
20   20   2    102.5849166116649        57.881226372012094       11.081138669036534       # Si
21   21   2    111.91052443271838       57.881226372012094       5.0                      # Si
22   22   2    111.91052443271838       57.881226372012094       11.081138669036534       # Si
23   23   2    9.326146251066247        57.881226372012094       5.0                      # Si
24   24   2    9.326146251066247        57.881226372012094       11.081138669036534       # Si
25   25   2    18.65175407211973        57.881226372012094       5.0                      # Si
26   26   2    18.65175407211973        57.881226372012094       11.081138669036534       # Si
27   27   2    27.977900323185978       57.881226372012094       5.0                      # Si
28   28   2    27.977900323185978       57.881226372012094       11.081138669036534       # Si
29   29   2    37.30350814423946        57.881226372012094       5.0                      # Si
30   30   2    37.30350814423946        57.881226372012094       11.081138669036534       # Si
31   31   2    83.93316253954517        63.265526499641126       5.0                      # Si
32   32   2    83.93316253954517        63.265526499641126       11.081138669036534       # Si
33   33   2    93.25877036059865        63.265526499641126       5.0                      # Si
34   34   2    93.25877036059865        63.265526499641126       11.081138669036534       # Si
35   35   2    102.5849166116649        63.265526499641126       5.0                      # Si
36   36   2    102.5849166116649        63.265526499641126       11.081138669036534       # Si
37   37   2    111.91052443271838       63.265526499641126       5.0                      # Si
38   38   2    111.91052443271838       63.265526499641126       11.081138669036534       # Si
39   39   2    9.326146251066247        63.265526499641126       5.0                      # Si
40   40   2    9.326146251066247        63.265526499641126       11.081138669036534       # Si
41   41   2    18.65175407211973        63.265526499641126       5.0                      # Si
42   42   2    18.65175407211973        63.265526499641126       11.081138669036534       # Si
43   43   2    27.977900323185978       63.265526499641126       5.0                      # Si
44   44   2    27.977900323185978       63.265526499641126       11.081138669036534       # Si
45   45   2    37.30350814423946        63.265526499641126       5.0                      # Si
46   46   2    37.30350814423946        63.265526499641126       11.081138669036534       # Si
47   47   2    79.26982019900566        65.95767656345564        5.0                      # Si
48   48   2    79.26982019900566        65.95767656345564        11.081138669036534       # Si
49   49   2    88.5959664500719         65.95767656345564        5.0                      # Si
50   50   2    88.5959664500719         65.95767656345564        11.081138669036534       # Si
51   51   2    97.92157427112538        65.95767656345564        5.0                      # Si
52   52   2    97.92157427112538        65.95767656345564        11.081138669036534       # Si
53   53   2    107.24772052219163       65.95767656345564        5.0                      # Si
54   54   2    107.24772052219163       65.95767656345564        11.081138669036534       # Si
55   55   2    4.662803910526741        65.95767656345564        5.0                      # Si
56   56   2    4.662803910526741        65.95767656345564        11.081138669036534       # Si
57   57   2    13.988950161592989       65.95767656345564        5.0                      # Si
58   58   2    13.988950161592989       65.95767656345564        11.081138669036534       # Si
59   59   2    23.314557982646466       65.95767656345564        5.0                      # Si
60   60   2    23.314557982646466       65.95767656345564        11.081138669036534       # Si
61   61   2    32.64070423371271        65.95767656345564        5.0                      # Si
62   62   2    32.64070423371271        65.95767656345564        11.081138669036534       # Si
63   63   2    41.9663120547662         65.95767656345564        5.0                      # Si
64   64   2    41.9663120547662         65.95767656345564        11.081138669036534       # Si
65   65   2    69.94421237795217        71.34197669108467        5.0                      # Si
66   66   2    69.94421237795217        71.34197669108467        11.081138669036534       # Si
67   67   2    79.26982019900566        71.34197669108467        5.0                      # Si
68   68   2    79.26982019900566        71.34197669108467        11.081138669036534       # Si
69   69   2    88.5959664500719         71.34197669108467        5.0                      # Si
70   70   2    88.5959664500719         71.34197669108467        11.081138669036534       # Si
71   71   2    97.92157427112538        71.34197669108467        5.0                      # Si
72   72   2    97.92157427112538        71.34197669108467        11.081138669036534       # Si
73   73   2    107.24772052219163       71.34197669108467        5.0                      # Si
74   74   2    107.24772052219163       71.34197669108467        11.081138669036534       # Si
75   75   2    4.662803910526741        71.34197669108467        5.0                      # Si
76   76   2    4.662803910526741        71.34197669108467        11.081138669036534       # Si
77   77   2    13.988950161592989       71.34197669108467        5.0                      # Si
78   78   2    13.988950161592989       71.34197669108467        11.081138669036534       # Si
79   79   2    23.314557982646466       71.34197669108467        5.0                      # Si
80   80   2    23.314557982646466       71.34197669108467        11.081138669036534       # Si
81   81   2    32.64070423371271        71.34197669108467        5.0                      # Si
82   82   2    32.64070423371271        71.34197669108467        11.081138669036534       # Si
83   83   2    41.9663120547662         71.34197669108467        5.0                      # Si
84   84   2    41.9663120547662         71.34197669108467        11.081138669036534       # Si
85   85   2    51.29245830583245        71.34197669108467        5.0                      # Si
86   86   2    51.29245830583245        71.34197669108467        11.081138669036534       # Si
87   87   2    55.95526221635919        74.03412675489919        5.0                      # Si
88   88   2    55.95526221635919        74.03412675489919        11.081138669036534       # Si
89   89   2    65.28140846742542        74.03412675489919        5.0                      # Si
90   90   2    65.28140846742542        74.03412675489919        11.081138669036534       # Si
91   91   2    74.60701628847892        74.03412675489919        5.0                      # Si
92   92   2    74.60701628847892        74.03412675489919        11.081138669036534       # Si
93   93   2    83.93316253954517        74.03412675489919        5.0                      # Si
94   94   2    83.93316253954517        74.03412675489919        11.081138669036534       # Si
95   95   2    93.25877036059865        74.03412675489919        5.0                      # Si
96   96   2    93.25877036059865        74.03412675489919        11.081138669036534       # Si
97   97   2    102.5849166116649        74.03412675489919        5.0                      # Si
98   98   2    102.5849166116649        74.03412675489919        11.081138669036534       # Si
99   99   2    111.91052443271838       74.03412675489919        5.0                      # Si
100  100  2    111.91052443271838       74.03412675489919        11.081138669036534       # Si
101  101  2    9.326146251066247        74.03412675489919        5.0                      # Si
102  102  2    9.326146251066247        74.03412675489919        11.081138669036534       # Si
103  103  2    18.65175407211973        74.03412675489919        5.0                      # Si
104  104  2    18.65175407211973        74.03412675489919        11.081138669036534       # Si
105  105  2    27.977900323185978       74.03412675489919        5.0                      # Si
106  106  2    27.977900323185978       74.03412675489919        11.081138669036534       # Si
107  107  2    37.30350814423946        74.03412675489919        5.0                      # Si
108  108  2    37.30350814423946        74.03412675489919        11.081138669036534       # Si
109  109  2    46.6296543953057         74.03412675489919        5.0                      # Si
110  110  2    46.6296543953057         74.03412675489919        11.081138669036534       # Si
111  111  2    65.28140846742542        79.41842688252822        5.0                      # Si
112  112  2    65.28140846742542        79.41842688252822        11.081138669036534       # Si
113  113  2    74.60701628847892        79.41842688252822        5.0                      # Si
114  114  2    74.60701628847892        79.41842688252822        11.081138669036534       # Si
115  115  2    83.93316253954517        79.41842688252822        5.0                      # Si
116  116  2    83.93316253954517        79.41842688252822        11.081138669036534       # Si
117  117  2    93.25877036059865        79.41842688252822        5.0                      # Si
118  118  2    93.25877036059865        79.41842688252822        11.081138669036534       # Si
119  119  2    102.5849166116649        79.41842688252822        5.0                      # Si
120  120  2    102.5849166116649        79.41842688252822        11.081138669036534       # Si
121  121  2    111.91052443271838       79.41842688252822        5.0                      # Si
122  122  2    111.91052443271838       79.41842688252822        11.081138669036534       # Si
123  123  2    9.326146251066247        79.41842688252822        5.0                      # Si
124  124  2    9.326146251066247        79.41842688252822        11.081138669036534       # Si
125  125  2    18.65175407211973        79.41842688252822        5.0                      # Si
126  126  2    18.65175407211973        79.41842688252822        11.081138669036534       # Si
127  127  2    27.977900323185978       79.41842688252822        5.0                      # Si
128  128  2    27.977900323185978       79.41842688252822        11.081138669036534       # Si
129  129  2    37.30350814423946        79.41842688252822        5.0                      # Si
130  130  2    37.30350814423946        79.41842688252822        11.081138669036534       # Si
131  131  2    46.6296543953057         79.41842688252822        5.0                      # Si
132  132  2    46.6296543953057         79.41842688252822        11.081138669036534       # Si
133  133  2    55.95526221635919        79.41842688252822        5.0                      # Si
134  134  2    55.95526221635919        79.41842688252822        11.081138669036534       # Si
135  135  2    60.61806612688592        82.11057694634273        5.0                      # Si
136  136  2    60.61806612688592        82.11057694634273        11.081138669036534       # Si
137  137  2    69.94421237795217        82.11057694634273        5.0                      # Si
138  138  2    69.94421237795217        82.11057694634273        11.081138669036534       # Si
139  139  2    79.26982019900566        82.11057694634273        5.0                      # Si
140  140  2    79.26982019900566        82.11057694634273        11.081138669036534       # Si
141  141  2    88.5959664500719         82.11057694634273        5.0                      # Si
142  142  2    88.5959664500719         82.11057694634273        11.081138669036534       # Si
143  143  2    97.92157427112538        82.11057694634273        5.0                      # Si
144  144  2    97.92157427112538        82.11057694634273        11.081138669036534       # Si
145  145  2    107.24772052219163       82.11057694634273        5.0                      # Si
146  146  2    107.24772052219163       82.11057694634273        11.081138669036534       # Si
147  147  2    4.662803910526741        82.11057694634273        5.0                      # Si
148  148  2    4.662803910526741        82.11057694634273        11.081138669036534       # Si
149  149  2    13.988950161592989       82.11057694634273        5.0                      # Si
150  150  2    13.988950161592989       82.11057694634273        11.081138669036534       # Si
151  151  2    23.314557982646466       82.11057694634273        5.0                      # Si
152  152  2    23.314557982646466       82.11057694634273        11.081138669036534       # Si
153  153  2    32.64070423371271        82.11057694634273        5.0                      # Si
154  154  2    32.64070423371271        82.11057694634273        11.081138669036534       # Si
155  155  2    41.9663120547662         82.11057694634273        5.0                      # Si
156  156  2    41.9663120547662         82.11057694634273        11.081138669036534       # Si
157  157  2    51.29245830583245        82.11057694634273        5.0                      # Si
158  158  2    51.29245830583245        82.11057694634273        11.081138669036534       # Si
159  159  2    60.61806612688592        87.49487707397176        5.0                      # Si
160  160  2    60.61806612688592        87.49487707397176        11.081138669036534       # Si
161  161  2    69.94421237795217        87.49487707397176        5.0                      # Si
162  162  2    69.94421237795217        87.49487707397176        11.081138669036534       # Si
163  163  2    79.26982019900566        87.49487707397176        5.0                      # Si
164  164  2    79.26982019900566        87.49487707397176        11.081138669036534       # Si
165  165  2    88.5959664500719         87.49487707397176        5.0                      # Si
166  166  2    88.5959664500719         87.49487707397176        11.081138669036534       # Si
167  167  2    97.92157427112538        87.49487707397176        5.0                      # Si
168  168  2    97.92157427112538        87.49487707397176        11.081138669036534       # Si
169  169  2    107.24772052219163       87.49487707397176        5.0                      # Si
170  170  2    107.24772052219163       87.49487707397176        11.081138669036534       # Si
171  171  2    4.662803910526741        87.49487707397176        5.0                      # Si
172  172  2    4.662803910526741        87.49487707397176        11.081138669036534       # Si
173  173  2    13.988950161592989       87.49487707397176        5.0                      # Si
174  174  2    13.988950161592989       87.49487707397176        11.081138669036534       # Si
175  175  2    23.314557982646466       87.49487707397176        5.0                      # Si
176  176  2    23.314557982646466       87.49487707397176        11.081138669036534       # Si
177  177  2    32.64070423371271        87.49487707397176        5.0                      # Si
178  178  2    32.64070423371271        87.49487707397176        11.081138669036534       # Si
179  179  2    41.9663120547662         87.49487707397176        5.0                      # Si
180  180  2    41.9663120547662         87.49487707397176        11.081138669036534       # Si
181  181  2    51.29245830583245        87.49487707397176        5.0                      # Si
182  182  2    51.29245830583245        87.49487707397176        11.081138669036534       # Si
183  183  2    55.95526221635919        90.18702713778627        5.0                      # Si
184  184  2    55.95526221635919        90.18702713778627        11.081138669036534       # Si
185  185  2    65.28140846742542        90.18702713778627        5.0                      # Si
186  186  2    65.28140846742542        90.18702713778627        11.081138669036534       # Si
187  187  2    74.60701628847892        90.18702713778627        5.0                      # Si
188  188  2    74.60701628847892        90.18702713778627        11.081138669036534       # Si
189  189  2    83.93316253954517        90.18702713778627        5.0                      # Si
190  190  2    83.93316253954517        90.18702713778627        11.081138669036534       # Si
191  191  2    93.25877036059865        90.18702713778627        5.0                      # Si
192  192  2    93.25877036059865        90.18702713778627        11.081138669036534       # Si
193  193  2    102.5849166116649        90.18702713778627        5.0                      # Si
194  194  2    102.5849166116649        90.18702713778627        11.081138669036534       # Si
195  195  2    111.91052443271838       90.18702713778627        5.0                      # Si
196  196  2    111.91052443271838       90.18702713778627        11.081138669036534       # Si
197  197  2    9.326146251066247        90.18702713778627        5.0                      # Si
198  198  2    9.326146251066247        90.18702713778627        11.081138669036534       # Si
199  199  2    18.65175407211973        90.18702713778627        5.0                      # Si
200  200  2    18.65175407211973        90.18702713778627        11.081138669036534       # Si
201  201  2    27.977900323185978       90.18702713778627        5.0                      # Si
202  202  2    27.977900323185978       90.18702713778627        11.081138669036534       # Si
203  203  2    37.30350814423946        90.18702713778627        5.0                      # Si
204  204  2    37.30350814423946        90.18702713778627        11.081138669036534       # Si
205  205  2    46.6296543953057         90.18702713778627        5.0                      # Si
206  206  2    46.6296543953057         90.18702713778627        11.081138669036534       # Si
207  207  2    65.28140846742542        95.5713272654153         5.0                      # Si
208  208  2    65.28140846742542        95.5713272654153         11.081138669036534       # Si
209  209  2    74.60701628847892        95.5713272654153         5.0                      # Si
210  210  2    74.60701628847892        95.5713272654153         11.081138669036534       # Si
211  211  2    83.93316253954517        95.5713272654153         5.0                      # Si
212  212  2    83.93316253954517        95.5713272654153         11.081138669036534       # Si
213  213  2    93.25877036059865        95.5713272654153         5.0                      # Si
214  214  2    93.25877036059865        95.5713272654153         11.081138669036534       # Si
215  215  2    102.5849166116649        95.5713272654153         5.0                      # Si
216  216  2    102.5849166116649        95.5713272654153         11.081138669036534       # Si
217  217  2    111.91052443271838       95.5713272654153         5.0                      # Si
218  218  2    111.91052443271838       95.5713272654153         11.081138669036534       # Si
219  219  2    9.326146251066247        95.5713272654153         5.0                      # Si
220  220  2    9.326146251066247        95.5713272654153         11.081138669036534       # Si
221  221  2    18.65175407211973        95.5713272654153         5.0                      # Si
222  222  2    18.65175407211973        95.5713272654153         11.081138669036534       # Si
223  223  2    27.977900323185978       95.5713272654153         5.0                      # Si
224  224  2    27.977900323185978       95.5713272654153         11.081138669036534       # Si
225  225  2    37.30350814423946        95.5713272654153         5.0                      # Si
226  226  2    37.30350814423946        95.5713272654153         11.081138669036534       # Si
227  227  2    46.6296543953057         95.5713272654153         5.0                      # Si
228  228  2    46.6296543953057         95.5713272654153         11.081138669036534       # Si
229  229  2    55.95526221635919        95.5713272654153         5.0                      # Si
230  230  2    55.95526221635919        95.5713272654153         11.081138669036534       # Si
231  231  2    60.61806612688592        1.3460750319072579       5.0                      # Si
232  232  2    60.61806612688592        1.3460750319072579       11.081138669036534       # Si
233  233  2    69.94421237795217        1.3460750319072579       5.0                      # Si
234  234  2    69.94421237795217        1.3460750319072579       11.081138669036534       # Si
235  235  2    79.26982019900566        1.3460750319072579       5.0                      # Si
236  236  2    79.26982019900566        1.3460750319072579       11.081138669036534       # Si
237  237  2    88.5959664500719         1.3460750319072579       5.0                      # Si
238  238  2    88.5959664500719         1.3460750319072579       11.081138669036534       # Si
239  239  2    97.92157427112538        1.3460750319072579       5.0                      # Si
240  240  2    97.92157427112538        1.3460750319072579       11.081138669036534       # Si
241  241  2    107.24772052219163       1.3460750319072579       5.0                      # Si
242  242  2    107.24772052219163       1.3460750319072579       11.081138669036534       # Si
243  243  2    4.662803910526741        1.3460750319072579       5.0                      # Si
244  244  2    4.662803910526741        1.3460750319072579       11.081138669036534       # Si
245  245  2    13.988950161592989       1.3460750319072579       5.0                      # Si
246  246  2    13.988950161592989       1.3460750319072579       11.081138669036534       # Si
247  247  2    23.314557982646466       1.3460750319072579       5.0                      # Si
248  248  2    23.314557982646466       1.3460750319072579       11.081138669036534       # Si
249  249  2    32.64070423371271        1.3460750319072579       5.0                      # Si
250  250  2    32.64070423371271        1.3460750319072579       11.081138669036534       # Si
251  251  2    41.9663120547662         1.3460750319072579       5.0                      # Si
252  252  2    41.9663120547662         1.3460750319072579       11.081138669036534       # Si
253  253  2    51.29245830583245        1.3460750319072579       5.0                      # Si
254  254  2    51.29245830583245        1.3460750319072579       11.081138669036534       # Si
255  255  2    60.61806612688592        6.7303751595362895       5.0                      # Si
256  256  2    60.61806612688592        6.7303751595362895       11.081138669036534       # Si
257  257  2    69.94421237795217        6.7303751595362895       5.0                      # Si
258  258  2    69.94421237795217        6.7303751595362895       11.081138669036534       # Si
259  259  2    79.26982019900566        6.7303751595362895       5.0                      # Si
260  260  2    79.26982019900566        6.7303751595362895       11.081138669036534       # Si
261  261  2    88.5959664500719         6.7303751595362895       5.0                      # Si
262  262  2    88.5959664500719         6.7303751595362895       11.081138669036534       # Si
263  263  2    97.92157427112538        6.7303751595362895       5.0                      # Si
264  264  2    97.92157427112538        6.7303751595362895       11.081138669036534       # Si
265  265  2    107.24772052219163       6.7303751595362895       5.0                      # Si
266  266  2    107.24772052219163       6.7303751595362895       11.081138669036534       # Si
267  267  2    4.662803910526741        6.7303751595362895       5.0                      # Si
268  268  2    4.662803910526741        6.7303751595362895       11.081138669036534       # Si
269  269  2    13.988950161592989       6.7303751595362895       5.0                      # Si
270  270  2    13.988950161592989       6.7303751595362895       11.081138669036534       # Si
271  271  2    23.314557982646466       6.7303751595362895       5.0                      # Si
272  272  2    23.314557982646466       6.7303751595362895       11.081138669036534       # Si
273  273  2    32.64070423371271        6.7303751595362895       5.0                      # Si
274  274  2    32.64070423371271        6.7303751595362895       11.081138669036534       # Si
275  275  2    41.9663120547662         6.7303751595362895       5.0                      # Si
276  276  2    41.9663120547662         6.7303751595362895       11.081138669036534       # Si
277  277  2    51.29245830583245        6.7303751595362895       5.0                      # Si
278  278  2    51.29245830583245        6.7303751595362895       11.081138669036534       # Si
279  279  2    55.95526221635919        9.422525223350805        5.0                      # Si
280  280  2    55.95526221635919        9.422525223350805        11.081138669036534       # Si
281  281  2    65.28140846742542        9.422525223350805        5.0                      # Si
282  282  2    65.28140846742542        9.422525223350805        11.081138669036534       # Si
283  283  2    74.60701628847892        9.422525223350805        5.0                      # Si
284  284  2    74.60701628847892        9.422525223350805        11.081138669036534       # Si
285  285  2    83.93316253954517        9.422525223350805        5.0                      # Si
286  286  2    83.93316253954517        9.422525223350805        11.081138669036534       # Si
287  287  2    93.25877036059865        9.422525223350805        5.0                      # Si
288  288  2    93.25877036059865        9.422525223350805        11.081138669036534       # Si
289  289  2    102.5849166116649        9.422525223350805        5.0                      # Si
290  290  2    102.5849166116649        9.422525223350805        11.081138669036534       # Si
291  291  2    111.91052443271838       9.422525223350805        5.0                      # Si
292  292  2    111.91052443271838       9.422525223350805        11.081138669036534       # Si
293  293  2    9.326146251066247        9.422525223350805        5.0                      # Si
294  294  2    9.326146251066247        9.422525223350805        11.081138669036534       # Si
295  295  2    18.65175407211973        9.422525223350805        5.0                      # Si
296  296  2    18.65175407211973        9.422525223350805        11.081138669036534       # Si
297  297  2    27.977900323185978       9.422525223350805        5.0                      # Si
298  298  2    27.977900323185978       9.422525223350805        11.081138669036534       # Si
299  299  2    37.30350814423946        9.422525223350805        5.0                      # Si
300  300  2    37.30350814423946        9.422525223350805        11.081138669036534       # Si
301  301  2    46.6296543953057         9.422525223350805        5.0                      # Si
302  302  2    46.6296543953057         9.422525223350805        11.081138669036534       # Si
303  303  2    65.28140846742542        14.806825350979837       5.0                      # Si
304  304  2    65.28140846742542        14.806825350979837       11.081138669036534       # Si
305  305  2    74.60701628847892        14.806825350979837       5.0                      # Si
306  306  2    74.60701628847892        14.806825350979837       11.081138669036534       # Si
307  307  2    83.93316253954517        14.806825350979837       5.0                      # Si
308  308  2    83.93316253954517        14.806825350979837       11.081138669036534       # Si
309  309  2    93.25877036059865        14.806825350979837       5.0                      # Si
310  310  2    93.25877036059865        14.806825350979837       11.081138669036534       # Si
311  311  2    102.5849166116649        14.806825350979837       5.0                      # Si