LAMMPS (23 Jun 2022 - Update 2)
OMP_NUM_THREADS environment is not set. Defaulting to 1 thread. (src/comm.cpp:98)
  using 1 OpenMP thread(s) per MPI task
Reading data file ...
  orthogonal box = (0 0 -0.5) to (26.720779 23.140873 0.5)
  1 by 1 by 1 MPI processor grid
  reading atoms ...
  476 atoms
  scanning bonds ...
  3 = max bonds/atom
  scanning angles ...
  3 = max angles/atom
  reading bonds ...
  714 bonds
  reading angles ...
  1428 angles
Finding 1-2 1-3 1-4 neighbors ...
  special bond factors lj:    0        0        0       
  special bond factors coul:  0        0        0       
     3 = max # of 1-2 neighbors
     6 = max # of 1-3 neighbors
    18 = max # of 1-4 neighbors
    18 = max # of special neighbors
  special bonds CPU = 0.000 seconds
  read_data CPU = 0.008 seconds
Changing box ...
  orthogonal box = (-0.19486155 0 -0.5) to (26.91564 23.140873 0.5)
  orthogonal box = (-0.19486155 -0.17020608 -0.5) to (26.91564 23.311079 0.5)
WARNING: Using 'neigh_modify every 1 delay 0 check yes' setting during minimization (src/min.cpp:187)
Setting up sd style minimization ...
  Unit style    : electron
  Current step  : 0
WARNING: No pairwise cutoff or binsize set. Atom sorting therefore disabled. (src/atom.cpp:2142)
WARNING: Inconsistent image flags (src/domain.cpp:819)
Per MPI rank memory allocation (min/avg/max) = 9.723 | 9.723 | 9.723 Mbytes
---
keywords: ['Step', 'PotEng', 'KinEng', 'E_pair', 'E_bond', 'TotEng', 'Volume', 'Temp', ]
data:
  - [0, 6.71599399847069, 0, 0, 4.89443363708037, 6.71599399847069, 636.589417215328, 0, ]
  - [303, 3.44021595804209, 0, 0, 1.50425131236515, 3.44021595804209, 636.589417215328, 0, ]
...
Loop time of 0.0565106 on 1 procs for 303 steps with 476 atoms

99.1% CPU use with 1 MPI tasks x 1 OpenMP threads

Minimization stats:
  Stopping criterion = energy tolerance
  Energy initial, next-to-last, final = 
      6.71599399847069   3.44021934310588   3.44021595804209
  Force two-norm initial, final = 4.7253794 0.0051040513
  Force max component initial, final = 1.3456975 0.00034203015
  Final line search alpha, max atom move = 1 0.00034203015
  Iterations, force evaluations = 303 602

MPI task timing breakdown:
Section |  min time  |  avg time  |  max time  |%varavg| %total
---------------------------------------------------------------
Pair    | 0          | 0          | 0          |   0.0 |  0.00
Bond    | 0.050037   | 0.050037   | 0.050037   |   0.0 | 88.54
Neigh   | 0          | 0          | 0          |   0.0 |  0.00
Comm    | 0.0014064  | 0.0014064  | 0.0014064  |   0.0 |  2.49
Output  | 0          | 0          | 0          |   0.0 |  0.00
Modify  | 0          | 0          | 0          |   0.0 |  0.00
Other   |            | 0.005067   |            |       |  8.97

Nlocal:            476 ave         476 max         476 min
Histogram: 1 0 0 0 0 0 0 0 0 0
Nghost:            349 ave         349 max         349 min
Histogram: 1 0 0 0 0 0 0 0 0 0
Neighs:              0 ave           0 max           0 min
Histogram: 1 0 0 0 0 0 0 0 0 0

Total # of neighbors = 0
Ave neighs/atom = 0
Ave special neighs/atom = 17.911765
Neighbor list builds = 0
Dangerous builds = 0
Total wall time: 0:00:00
