DATA FILE Produced from netmc results (cf David Morley)
496 atoms
1 atom types
0.00000 38.73243612971049 xlo xhi
0.00000 33.54327354329032 ylo yhi

 Masses

1 12.0000 # Si

 Atoms # molecular

1    1    22.9974081049196         18.518682268691528       0.0                     # C
2    1    25.418114345627053       18.518682268691528       0.0                     # C
3    1    27.83896034997427        18.518682268691528       0.0                     # C
4    1    30.25966659068172        18.518682268691528       0.0                     # C
5    1    32.68051259502893        18.518682268691528       0.0                     # C
6    1    35.10121883573638        18.518682268691528       0.0                     # C
7    1    37.5220648400836         18.518682268691528       0.0                     # C
8    1    1.2103531203537254       18.518682268691528       0.0                     # C
9    1    3.6311991247009403       18.518682268691528       0.0                     # C
10   1    6.051905365408391        18.518682268691528       0.0                     # C
11   1    8.472751369755606        18.518682268691528       0.0                     # C
12   1    10.893457610463058       18.518682268691528       0.0                     # C
13   1    13.314303614810271       18.518682268691528       0.0                     # C
14   1    21.787054984565877       19.217500467510074       0.0                     # C
15   1    24.207761225273327       19.217500467510074       0.0                     # C
16   1    26.628607229620542       19.217500467510074       0.0                     # C
17   1    29.049313470327995       19.217500467510074       0.0                     # C
18   1    31.470159474675206       19.217500467510074       0.0                     # C
19   1    33.89086571538266        19.217500467510074       0.0                     # C
20   1    36.31171171972987        19.217500467510074       0.0                     # C
21   1    38.732417960437324       19.217500467510074       0.0                     # C
22   1    2.4208460043472146       19.217500467510074       0.0                     # C
23   1    4.8415522450546655       19.217500467510074       0.0                     # C
24   1    7.262398249401881        19.217500467510074       0.0                     # C
25   1    9.683104490109331        19.217500467510074       0.0                     # C
26   1    12.103950494456546       19.217500467510074       0.0                     # C
27   1    14.524656735163997       19.217500467510074       0.0                     # C
28   1    21.787054984565877       20.61513686514717        0.0                     # C
29   1    24.207761225273327       20.61513686514717        0.0                     # C
30   1    26.628607229620542       20.61513686514717        0.0                     # C
31   1    29.049313470327995       20.61513686514717        0.0                     # C
32   1    31.470159474675206       20.61513686514717        0.0                     # C
33   1    33.89086571538266        20.61513686514717        0.0                     # C
34   1    36.31171171972987        20.61513686514717        0.0                     # C
35   1    38.732417960437324       20.61513686514717        0.0                     # C
36   1    2.4208460043472146       20.61513686514717        0.0                     # C
37   1    4.8415522450546655       20.61513686514717        0.0                     # C
38   1    7.262398249401881        20.61513686514717        0.0                     # C
39   1    9.683104490109331        20.61513686514717        0.0                     # C
40   1    12.103950494456546       20.61513686514717        0.0                     # C
41   1    14.524656735163997       20.61513686514717        0.0                     # C
42   1    16.945502739511213       20.61513686514717        0.0                     # C
43   1    19.366208980218662       20.61513686514717        0.0                     # C
44   1    20.57656210057239        21.313955063965718       0.0                     # C
45   1    22.9974081049196         21.313955063965718       0.0                     # C
46   1    25.418114345627053       21.313955063965718       0.0                     # C
47   1    27.83896034997427        21.313955063965718       0.0                     # C
48   1    30.25966659068172        21.313955063965718       0.0                     # C
49   1    32.68051259502893        21.313955063965718       0.0                     # C
50   1    35.10121883573638        21.313955063965718       0.0                     # C
51   1    37.5220648400836         21.313955063965718       0.0                     # C
52   1    1.2103531203537254       21.313955063965718       0.0                     # C
53   1    3.6311991247009403       21.313955063965718       0.0                     # C
54   1    6.051905365408391        21.313955063965718       0.0                     # C
55   1    8.472751369755606        21.313955063965718       0.0                     # C
56   1    10.893457610463058       21.313955063965718       0.0                     # C
57   1    13.314303614810271       21.313955063965718       0.0                     # C
58   1    15.735009855517724       21.313955063965718       0.0                     # C
59   1    18.155855859864936       21.313955063965718       0.0                     # C
60   1    20.57656210057239        22.711591461602815       0.0                     # C
61   1    22.9974081049196         22.711591461602815       0.0                     # C
62   1    25.418114345627053       22.711591461602815       0.0                     # C
63   1    27.83896034997427        22.711591461602815       0.0                     # C
64   1    30.25966659068172        22.711591461602815       0.0                     # C
65   1    32.68051259502893        22.711591461602815       0.0                     # C
66   1    35.10121883573638        22.711591461602815       0.0                     # C
67   1    37.5220648400836         22.711591461602815       0.0                     # C
68   1    1.2103531203537254       22.711591461602815       0.0                     # C
69   1    3.6311991247009403       22.711591461602815       0.0                     # C
70   1    6.051905365408391        22.711591461602815       0.0                     # C
71   1    8.472751369755606        22.711591461602815       0.0                     # C
72   1    10.893457610463058       22.711591461602815       0.0                     # C
73   1    13.314303614810271       22.711591461602815       0.0                     # C
74   1    15.735009855517724       22.711591461602815       0.0                     # C
75   1    18.155855859864936       22.711591461602815       0.0                     # C
76   1    19.366208980218662       23.41040966042136        0.0                     # C
77   1    21.787054984565877       23.41040966042136        0.0                     # C
78   1    24.207761225273327       23.41040966042136        0.0                     # C
79   1    26.628607229620542       23.41040966042136        0.0                     # C
80   1    29.049313470327995       23.41040966042136        0.0                     # C
81   1    31.470159474675206       23.41040966042136        0.0                     # C
82   1    33.89086571538266        23.41040966042136        0.0                     # C
83   1    36.31171171972987        23.41040966042136        0.0                     # C
84   1    38.732417960437324       23.41040966042136        0.0                     # C
85   1    2.4208460043472146       23.41040966042136        0.0                     # C
86   1    4.8415522450546655       23.41040966042136        0.0                     # C
87   1    7.262398249401881        23.41040966042136        0.0                     # C
88   1    9.683104490109331        23.41040966042136        0.0                     # C
89   1    12.103950494456546       23.41040966042136        0.0                     # C
90   1    14.524656735163997       23.41040966042136        0.0                     # C
91   1    16.945502739511213       23.41040966042136        0.0                     # C
92   1    21.787054984565877       24.808046058058462       0.0                     # C
93   1    24.207761225273327       24.808046058058462       0.0                     # C
94   1    26.628607229620542       24.808046058058462       0.0                     # C
95   1    29.049313470327995       24.808046058058462       0.0                     # C
96   1    31.470159474675206       24.808046058058462       0.0                     # C
97   1    33.89086571538266        24.808046058058462       0.0                     # C
98   1    36.31171171972987        24.808046058058462       0.0                     # C
99   1    38.732417960437324       24.808046058058462       0.0                     # C
100  1    2.4208460043472146       24.808046058058462       0.0                     # C
101  1    4.8415522450546655       24.808046058058462       0.0                     # C
102  1    7.262398249401881        24.808046058058462       0.0                     # C
103  1    9.683104490109331        24.808046058058462       0.0                     # C
104  1    12.103950494456546       24.808046058058462       0.0                     # C
105  1    14.524656735163997       24.808046058058462       0.0                     # C
106  1    16.945502739511213       24.808046058058462       0.0                     # C
107  1    19.366208980218662       24.808046058058462       0.0                     # C
108  1    20.57656210057239        25.50686425687701        0.0                     # C
109  1    22.9974081049196         25.50686425687701        0.0                     # C
110  1    25.418114345627053       25.50686425687701        0.0                     # C
111  1    27.83896034997427        25.50686425687701        0.0                     # C
112  1    30.25966659068172        25.50686425687701        0.0                     # C
113  1    32.68051259502893        25.50686425687701        0.0                     # C
114  1    35.10121883573638        25.50686425687701        0.0                     # C
115  1    37.5220648400836         25.50686425687701        0.0                     # C
116  1    1.2103531203537254       25.50686425687701        0.0                     # C
117  1    3.6311991247009403       25.50686425687701        0.0                     # C
118  1    6.051905365408391        25.50686425687701        0.0                     # C
119  1    8.472751369755606        25.50686425687701        0.0                     # C
120  1    10.893457610463058       25.50686425687701        0.0                     # C
121  1    13.314303614810271       25.50686425687701        0.0                     # C
122  1    15.735009855517724       25.50686425687701        0.0                     # C
123  1    18.155855859864936       25.50686425687701        0.0                     # C
124  1    20.57656210057239        26.904500654514106       0.0                     # C
125  1    22.9974081049196         26.904500654514106       0.0                     # C
126  1    25.418114345627053       26.904500654514106       0.0                     # C
127  1    27.83896034997427        26.904500654514106       0.0                     # C
128  1    30.25966659068172        26.904500654514106       0.0                     # C
129  1    32.68051259502893        26.904500654514106       0.0                     # C
130  1    35.10121883573638        26.904500654514106       0.0                     # C
131  1    37.5220648400836         26.904500654514106       0.0                     # C
132  1    1.2103531203537254       26.904500654514106       0.0                     # C
133  1    3.6311991247009403       26.904500654514106       0.0                     # C
134  1    6.051905365408391        26.904500654514106       0.0                     # C
135  1    8.472751369755606        26.904500654514106       0.0                     # C
136  1    10.893457610463058       26.904500654514106       0.0                     # C
137  1    13.314303614810271       26.904500654514106       0.0                     # C
138  1    15.735009855517724       26.904500654514106       0.0                     # C
139  1    18.155855859864936       26.904500654514106       0.0                     # C
140  1    19.366208980218662       27.603318853332652       0.0                     # C
141  1    21.787054984565877       27.603318853332652       0.0                     # C
142  1    24.207761225273327       27.603318853332652       0.0                     # C
143  1    26.628607229620542       27.603318853332652       0.0                     # C
144  1    29.049313470327995       27.603318853332652       0.0                     # C
145  1    31.470159474675206       27.603318853332652       0.0                     # C
146  1    33.89086571538266        27.603318853332652       0.0                     # C
147  1    36.31171171972987        27.603318853332652       0.0                     # C
148  1    38.732417960437324       27.603318853332652       0.0                     # C
149  1    2.4208460043472146       27.603318853332652       0.0                     # C
150  1    4.8415522450546655       27.603318853332652       0.0                     # C
151  1    7.262398249401881        27.603318853332652       0.0                     # C
152  1    9.683104490109331        27.603318853332652       0.0                     # C
153  1    12.103950494456546       27.603318853332652       0.0                     # C
154  1    14.524656735163997       27.603318853332652       0.0                     # C
155  1    16.945502739511213       27.603318853332652       0.0                     # C
156  1    21.787054984565877       29.000955250969753       0.0                     # C
157  1    24.207761225273327       29.000955250969753       0.0                     # C
158  1    26.628607229620542       29.000955250969753       0.0                     # C
159  1    29.049313470327995       29.000955250969753       0.0                     # C
160  1    31.470159474675206       29.000955250969753       0.0                     # C
161  1    33.89086571538266        29.000955250969753       0.0                     # C
162  1    36.31171171972987        29.000955250969753       0.0                     # C
163  1    38.732417960437324       29.000955250969753       0.0                     # C
164  1    2.4208460043472146       29.000955250969753       0.0                     # C
165  1    4.8415522450546655       29.000955250969753       0.0                     # C
166  1    7.262398249401881        29.000955250969753       0.0                     # C
167  1    9.683104490109331        29.000955250969753       0.0                     # C
168  1    12.103950494456546       29.000955250969753       0.0                     # C
169  1    14.524656735163997       29.000955250969753       0.0                     # C
170  1    16.945502739511213       29.000955250969753       0.0                     # C
171  1    19.366208980218662       29.000955250969753       0.0                     # C
172  1    20.57656210057239        29.6997734497883         0.0                     # C
173  1    22.9974081049196         29.6997734497883         0.0                     # C
174  1    25.418114345627053       29.6997734497883         0.0                     # C
175  1    27.83896034997427        29.6997734497883         0.0                     # C
176  1    30.25966659068172        29.6997734497883         0.0                     # C
177  1    32.68051259502893        29.6997734497883         0.0                     # C
178  1    35.10121883573638        29.6997734497883         0.0                     # C
179  1    37.5220648400836         29.6997734497883         0.0                     # C
180  1    1.2103531203537254       29.6997734497883         0.0                     # C
181  1    3.6311991247009403       29.6997734497883         0.0                     # C
182  1    6.051905365408391        29.6997734497883         0.0                     # C
183  1    8.472751369755606        29.6997734497883         0.0                     # C
184  1    10.893457610463058       29.6997734497883         0.0                     # C
185  1    13.314303614810271       29.6997734497883         0.0                     # C
186  1    15.735009855517724       29.6997734497883         0.0                     # C
187  1    18.155855859864936       29.6997734497883         0.0                     # C
188  1    20.57656210057239        31.097409847425396       0.0                     # C
189  1    22.9974081049196         31.097409847425396       0.0                     # C
190  1    25.418114345627053       31.097409847425396       0.0                     # C
191  1    27.83896034997427        31.097409847425396       0.0                     # C
192  1    30.25966659068172        31.097409847425396       0.0                     # C
193  1    32.68051259502893        31.097409847425396       0.0                     # C
194  1    35.10121883573638        31.097409847425396       0.0                     # C
195  1    37.5220648400836         31.097409847425396       0.0                     # C
196  1    1.2103531203537254       31.097409847425396       0.0                     # C
197  1    3.6311991247009403       31.097409847425396       0.0                     # C
198  1    6.051905365408391        31.097409847425396       0.0                     # C
199  1    8.472751369755606        31.097409847425396       0.0                     # C
200  1    10.893457610463058       31.097409847425396       0.0                     # C
201  1    13.314303614810271       31.097409847425396       0.0                     # C
202  1    15.735009855517724       31.097409847425396       0.0                     # C
203  1    18.155855859864936       31.097409847425396       0.0                     # C
204  1    19.366208980218662       31.796228046243943       0.0                     # C
205  1    21.787054984565877       31.796228046243943       0.0                     # C
206  1    24.207761225273327       31.796228046243943       0.0                     # C
207  1    26.628607229620542       31.796228046243943       0.0                     # C
208  1    29.049313470327995       31.796228046243943       0.0                     # C
209  1    31.470159474675206       31.796228046243943       0.0                     # C
210  1    33.89086571538266        31.796228046243943       0.0                     # C
211  1    36.31171171972987        31.796228046243943       0.0                     # C
212  1    38.732417960437324       31.796228046243943       0.0                     # C
213  1    2.4208460043472146       31.796228046243943       0.0                     # C
214  1    4.8415522450546655       31.796228046243943       0.0                     # C
215  1    7.262398249401881        31.796228046243943       0.0                     # C
216  1    9.683104490109331        31.796228046243943       0.0                     # C
217  1    12.103950494456546       31.796228046243943       0.0                     # C
218  1    14.524656735163997       31.796228046243943       0.0                     # C
219  1    16.945502739511213       31.796228046243943       0.0                     # C
220  1    21.787054984565877       33.19386444388104        0.0                     # C
221  1    24.207761225273327       33.19386444388104        0.0                     # C
222  1    26.628607229620542       33.19386444388104        0.0                     # C
223  1    29.049313470327995       33.19386444388104        0.0                     # C
224  1    31.470159474675206       33.19386444388104        0.0                     # C
225  1    33.89086571538266        33.19386444388104        0.0                     # C
226  1    36.31171171972987        33.19386444388104        0.0                     # C
227  1    38.732417960437324       33.19386444388104        0.0                     # C
228  1    2.4208460043472146       33.19386444388104        0.0                     # C
229  1    4.8415522450546655       33.19386444388104        0.0                     # C
230  1    7.262398249401881        33.19386444388104        0.0                     # C
231  1    9.683104490109331        33.19386444388104        0.0                     # C
232  1    12.103950494456546       33.19386444388104        0.0                     # C
233  1    14.524656735163997       33.19386444388104        0.0                     # C
234  1    16.945502739511213       33.19386444388104        0.0                     # C
235  1    19.366208980218662       33.19386444388104        0.0                     # C
236  1    20.57656210057239        0.3494090994092741       0.0                     # C
237  1    22.9974081049196         0.3494090994092741       0.0                     # C
238  1    25.418114345627053       0.3494090994092741       0.0                     # C
239  1    27.83896034997427        0.3494090994092741       0.0                     # C
240  1    30.25966659068172        0.3494090994092741       0.0                     # C
241  1    32.68051259502893        0.3494090994092741       0.0                     # C
242  1    35.10121883573638        0.3494090994092741       0.0                     # C
243  1    37.5220648400836         0.3494090994092741       0.0                     # C
244  1    1.2103531203537254       0.3494090994092741       0.0                     # C
245  1    3.6311991247009403       0.3494090994092741       0.0                     # C
246  1    6.051905365408391        0.3494090994092741       0.0                     # C
247  1    8.472751369755606        0.3494090994092741       0.0                     # C
248  1    10.893457610463058       0.3494090994092741       0.0                     # C
249  1    13.314303614810271       0.3494090994092741       0.0                     # C
250  1    15.735009855517724       0.3494090994092741       0.0                     # C
251  1    18.155855859864936       0.3494090994092741       0.0                     # C
252  1    20.57656210057239        1.7470454970463705       0.0                     # C
253  1    22.9974081049196         1.7470454970463705       0.0                     # C
254  1    25.418114345627053       1.7470454970463705       0.0                     # C
255  1    27.83896034997427        1.7470454970463705       0.0                     # C
256  1    30.25966659068172        1.7470454970463705       0.0                     # C
257  1    32.68051259502893        1.7470454970463705       0.0                     # C
258  1    35.10121883573638        1.7470454970463705       0.0                     # C
259  1    37.5220648400836         1.7470454970463705       0.0                     # C
260  1    1.2103531203537254       1.7470454970463705       0.0                     # C
261  1    3.6311991247009403       1.7470454970463705       0.0                     # C
262  1    6.051905365408391        1.7470454970463705       0.0                     # C
263  1    8.472751369755606        1.7470454970463705       0.0                     # C
264  1    10.893457610463058       1.7470454970463705       0.0                     # C
265  1    13.314303614810271       1.7470454970463705       0.0                     # C
266  1    15.735009855517724       1.7470454970463705       0.0                     # C
267  1    18.155855859864936       1.7470454970463705       0.0                     # C
268  1    19.366208980218662       2.4458636958649187       0.0                     # C
269  1    21.787054984565877       2.4458636958649187       0.0                     # C
270  1    24.207761225273327       2.4458636958649187       0.0                     # C
271  1    26.628607229620542       2.4458636958649187       0.0                     # C
272  1    29.049313470327995       2.4458636958649187       0.0                     # C
273  1    31.470159474675206       2.4458636958649187       0.0                     # C
274  1    33.89086571538266        2.4458636958649187       0.0                     # C
275  1    36.31171171972987        2.4458636958649187       0.0                     # C
276  1    38.732417960437324       2.4458636958649187       0.0                     # C
277  1    2.4208460043472146       2.4458636958649187       0.0                     # C
278  1    4.8415522450546655       2.4458636958649187       0.0                     # C
279  1    7.262398249401881        2.4458636958649187       0.0                     # C
280  1    9.683104490109331        2.4458636958649187       0.0                     # C
281  1    12.103950494456546       2.4458636958649187       0.0                     # C
282  1    14.524656735163997       2.4458636958649187       0.0                     # C
283  1    16.945502739511213       2.4458636958649187       0.0                     # C
284  1    21.787054984565877       3.8435000935020147       0.0                     # C
285  1    24.207761225273327       3.8435000935020147       0.0                     # C
286  1    26.628607229620542       3.8435000935020147       0.0                     # C
287  1    29.049313470327995       3.8435000935020147       0.0                     # C
288  1    31.470159474675206       3.8435000935020147       0.0                     # C
289  1    33.89086571538266        3.8435000935020147       0.0                     # C
290  1    36.31171171972987        3.8435000935020147       0.0                     # C
291  1    38.732417960437324       3.8435000935020147       0.0                     # C
292  1    2.4208460043472146       3.8435000935020147       0.0                     # C
293  1    4.8415522450546655       3.8435000935020147       0.0                     # C
294  1    7.262398249401881        3.8435000935020147       0.0                     # C
295  1    9.683104490109331        3.8435000935020147       0.0                     # C
296  1    12.103950494456546       3.8435000935020147       0.0                     # C
297  1    14.524656735163997       3.8435000935020147       0.0                     # C
298  1    16.945502739511213       3.8435000935020147       0.0                     # C
299  1    19.366208980218662       3.8435000935020147       0.0                     # C
300  1    20.57656210057239        4.542318292320563        0.0                     # C
301  1    22.9974081049196         4.542318292320563        0.0                     # C
302  1    25.418114345627053       4.542318292320563        0.0                     # C
303  1    27.83896034997427        4.542318292320563        0.0                     # C
304  1    30.25966659068172        4.542318292320563        0.0                     # C
305  1    32.68051259502893        4.542318292320563        0.0                     # C
306  1    35.10121883573638        4.542318292320563        0.0                     # C
307  1    37.5220648400836         4.542318292320563        0.0                     # C
308  1    1.2103531203537254       4.542318292320563        0.0                     # C
309  1    3.6311991247009403       4.542318292320563        0.0                     # C
310  1    6.051905365408391        4.542318292320563        0.0                     # C
311  1    8.472751369755606        4.542318292320563        0.0                     # C
312  1    10.893457610463058       4.542318292320563        0.0                     # C
313  1    13.314303614810271       4.542318292320563        0.0                     # C
314  1    15.735009855517724       4.542318292320563        0.0                     # C
315  1    18.155855859864936       4.542318292320563        0.0                     # C
316  1    20.57656210057239        5.93995468995766         0.0                     # C
317  1    22.9974081049196         5.93995468995766         0.0                     # C
318  1    25.418114345627053       5.93995468995766         0.0                     # C
319  1    27.83896034997427        5.93995468995766         0.0                     # C
320  1    30.25966659068172        5.93995468995766         0.0                     # C
321  1    32.68051259502893        5.93995468995766         0.0                     # C
322  1    35.10121883573638        5.93995468995766         0.0                     # C
323  1    37.5220648400836         5.93995468995766         0.0                     # C
324  1    1.2103531203537254       5.93995468995766         0.0                     # C
325  1    3.6311991247009403       5.93995468995766         0.0                     # C
326  1    6.051905365408391        5.93995468995766         0.0                     # C
327  1    8.472751369755606        5.93995468995766         0.0                     # C
328  1    10.893457610463058       5.93995468995766         0.0                     # C
329  1    13.314303614810271       5.93995468995766         0.0                     # C
330  1    15.735009855517724       5.93995468995766         0.0                     # C
331  1    18.155855859864936       5.93995468995766         0.0                     # C
332  1    19.366208980218662       6.6387728887762085       0.0                     # C
333  1    21.787054984565877       6.6387728887762085       0.0                     # C
334  1    24.207761225273327       6.6387728887762085       0.0                     # C
335  1    26.628607229620542       6.6387728887762085       0.0                     # C
336  1    29.049313470327995       6.6387728887762085       0.0                     # C
337  1    31.470159474675206       6.6387728887762085       0.0                     # C
338  1    33.89086571538266        6.6387728887762085       0.0                     # C