DATA FILE Produced from netmc results (cf David Morley)
1240 atoms
2976 bonds
0 angles
0 dihedrals
0 impropers
2 atom types
2 bond types
0 angle types
0 dihedral types
0 improper types
0.00000 156.38500725418007 xlo xhi
0.00000 135.43338866755684 ylo yhi

# Pair Coeffs
#
# 1  O
# 2  Si

# Bond Coeffs
# 
# 1  O-O
# 2  Si-O
# 3  O-O rep
# 4  Si-Si rep

 Masses

1 28.10000 # O 
2 32.01000 # Si

 Atoms # molecular

1    1    2    92.85369557626308        74.77051666021367        5.0                      # Si
2    2    2    102.62747179177177       74.77051666021367        5.0                      # Si
3    3    2    112.40181231306657       74.77051666021367        5.0                      # Si
4    4    2    122.17558852857526       74.77051666021367        5.0                      # Si
5    5    2    131.94992904987004       74.77051666021367        5.0                      # Si
6    6    2    141.72370526537873       74.77051666021367        5.0                      # Si
7    7    2    151.49804578667354       74.77051666021367        5.0                      # Si
8    8    2    4.886888107754343        74.77051666021367        5.0                      # Si
9    9    2    14.661228629049143       74.77051666021367        5.0                      # Si
10   10   2    24.435004844557827       74.77051666021367        5.0                      # Si
11   11   2    34.20934536585263        74.77051666021367        5.0                      # Si
12   12   2    43.98312158136131        74.77051666021367        5.0                      # Si
13   13   2    53.75746210265611        74.77051666021367        5.0                      # Si
14   14   2    87.96680746850875        77.59204559078776        5.0                      # Si
15   15   2    97.74058368401742        77.59204559078776        5.0                      # Si
16   16   2    107.51492420531223       77.59204559078776        5.0                      # Si
17   17   2    117.28870042082092       77.59204559078776        5.0                      # Si
18   18   2    127.0630409421157        77.59204559078776        5.0                      # Si
19   19   2    136.83681715762438       77.59204559078776        5.0                      # Si
20   20   2    146.61115767891917       77.59204559078776        5.0                      # Si
21   21   2    156.3849338944279        77.59204559078776        5.0                      # Si
22   22   2    9.7743405212948          77.59204559078776        5.0                      # Si
23   23   2    19.548116736803486       77.59204559078776        5.0                      # Si
24   24   2    29.322457258098286       77.59204559078776        5.0                      # Si
25   25   2    39.09623347360697        77.59204559078776        5.0                      # Si
26   26   2    48.87057399490177        77.59204559078776        5.0                      # Si
27   27   2    58.64435021041046        77.59204559078776        5.0                      # Si
28   28   2    87.96680746850875        83.23510345193598        5.0                      # Si
29   29   2    97.74058368401742        83.23510345193598        5.0                      # Si
30   30   2    107.51492420531223       83.23510345193598        5.0                      # Si
31   31   2    117.28870042082092       83.23510345193598        5.0                      # Si
32   32   2    127.0630409421157        83.23510345193598        5.0                      # Si
33   33   2    136.83681715762438       83.23510345193598        5.0                      # Si
34   34   2    146.61115767891917       83.23510345193598        5.0                      # Si
35   35   2    156.3849338944279        83.23510345193598        5.0                      # Si
36   36   2    9.7743405212948          83.23510345193598        5.0                      # Si
37   37   2    19.548116736803486       83.23510345193598        5.0                      # Si
38   38   2    29.322457258098286       83.23510345193598        5.0                      # Si
39   39   2    39.09623347360697        83.23510345193598        5.0                      # Si
40   40   2    48.87057399490177        83.23510345193598        5.0                      # Si
41   41   2    58.64435021041046        83.23510345193598        5.0                      # Si
42   42   2    68.41869073170525        83.23510345193598        5.0                      # Si
43   43   2    78.19246694721394        83.23510345193598        5.0                      # Si
44   44   2    83.07935505496829        86.05663238251007        5.0                      # Si
45   45   2    92.85369557626308        86.05663238251007        5.0                      # Si
46   46   2    102.62747179177177       86.05663238251007        5.0                      # Si
47   47   2    112.40181231306657       86.05663238251007        5.0                      # Si
48   48   2    122.17558852857526       86.05663238251007        5.0                      # Si
49   49   2    131.94992904987004       86.05663238251007        5.0                      # Si
50   50   2    141.72370526537873       86.05663238251007        5.0                      # Si
51   51   2    151.49804578667354       86.05663238251007        5.0                      # Si
52   52   2    4.886888107754343        86.05663238251007        5.0                      # Si
53   53   2    14.661228629049143       86.05663238251007        5.0                      # Si
54   54   2    24.435004844557827       86.05663238251007        5.0                      # Si
55   55   2    34.20934536585263        86.05663238251007        5.0                      # Si
56   56   2    43.98312158136131        86.05663238251007        5.0                      # Si
57   57   2    53.75746210265611        86.05663238251007        5.0                      # Si
58   58   2    63.5312383181648         86.05663238251007        5.0                      # Si
59   59   2    73.30557883945959        86.05663238251007        5.0                      # Si
60   60   2    83.07935505496829        91.69969024365827        5.0                      # Si
61   61   2    92.85369557626308        91.69969024365827        5.0                      # Si
62   62   2    102.62747179177177       91.69969024365827        5.0                      # Si
63   63   2    112.40181231306657       91.69969024365827        5.0                      # Si
64   64   2    122.17558852857526       91.69969024365827        5.0                      # Si
65   65   2    131.94992904987004       91.69969024365827        5.0                      # Si
66   66   2    141.72370526537873       91.69969024365827        5.0                      # Si
67   67   2    151.49804578667354       91.69969024365827        5.0                      # Si
68   68   2    4.886888107754343        91.69969024365827        5.0                      # Si
69   69   2    14.661228629049143       91.69969024365827        5.0                      # Si
70   70   2    24.435004844557827       91.69969024365827        5.0                      # Si
71   71   2    34.20934536585263        91.69969024365827        5.0                      # Si
72   72   2    43.98312158136131        91.69969024365827        5.0                      # Si
73   73   2    53.75746210265611        91.69969024365827        5.0                      # Si
74   74   2    63.5312383181648         91.69969024365827        5.0                      # Si
75   75   2    73.30557883945959        91.69969024365827        5.0                      # Si
76   76   2    78.19246694721394        94.52121917423237        5.0                      # Si
77   77   2    87.96680746850875        94.52121917423237        5.0                      # Si
78   78   2    97.74058368401742        94.52121917423237        5.0                      # Si
79   79   2    107.51492420531223       94.52121917423237        5.0                      # Si
80   80   2    117.28870042082092       94.52121917423237        5.0                      # Si
81   81   2    127.0630409421157        94.52121917423237        5.0                      # Si
82   82   2    136.83681715762438       94.52121917423237        5.0                      # Si
83   83   2    146.61115767891917       94.52121917423237        5.0                      # Si
84   84   2    156.3849338944279        94.52121917423237        5.0                      # Si
85   85   2    9.7743405212948          94.52121917423237        5.0                      # Si
86   86   2    19.548116736803486       94.52121917423237        5.0                      # Si
87   87   2    29.322457258098286       94.52121917423237        5.0                      # Si
88   88   2    39.09623347360697        94.52121917423237        5.0                      # Si
89   89   2    48.87057399490177        94.52121917423237        5.0                      # Si
90   90   2    58.64435021041046        94.52121917423237        5.0                      # Si
91   91   2    68.41869073170525        94.52121917423237        5.0                      # Si
92   92   2    87.96680746850875        100.16427703538058       5.0                      # Si
93   93   2    97.74058368401742        100.16427703538058       5.0                      # Si
94   94   2    107.51492420531223       100.16427703538058       5.0                      # Si
95   95   2    117.28870042082092       100.16427703538058       5.0                      # Si
96   96   2    127.0630409421157        100.16427703538058       5.0                      # Si
97   97   2    136.83681715762438       100.16427703538058       5.0                      # Si
98   98   2    146.61115767891917       100.16427703538058       5.0                      # Si
99   99   2    156.3849338944279        100.16427703538058       5.0                      # Si
100  100  2    9.7743405212948          100.16427703538058       5.0                      # Si
101  101  2    19.548116736803486       100.16427703538058       5.0                      # Si
102  102  2    29.322457258098286       100.16427703538058       5.0                      # Si
103  103  2    39.09623347360697        100.16427703538058       5.0                      # Si
104  104  2    48.87057399490177        100.16427703538058       5.0                      # Si
105  105  2    58.64435021041046        100.16427703538058       5.0                      # Si
106  106  2    68.41869073170525        100.16427703538058       5.0                      # Si
107  107  2    78.19246694721394        100.16427703538058       5.0                      # Si
108  108  2    83.07935505496829        102.98580596595467       5.0                      # Si
109  109  2    92.85369557626308        102.98580596595467       5.0                      # Si
110  110  2    102.62747179177177       102.98580596595467       5.0                      # Si
111  111  2    112.40181231306657       102.98580596595467       5.0                      # Si
112  112  2    122.17558852857526       102.98580596595467       5.0                      # Si
113  113  2    131.94992904987004       102.98580596595467       5.0                      # Si
114  114  2    141.72370526537873       102.98580596595467       5.0                      # Si
115  115  2    151.49804578667354       102.98580596595467       5.0                      # Si
116  116  2    4.886888107754343        102.98580596595467       5.0                      # Si
117  117  2    14.661228629049143       102.98580596595467       5.0                      # Si
118  118  2    24.435004844557827       102.98580596595467       5.0                      # Si
119  119  2    34.20934536585263        102.98580596595467       5.0                      # Si
120  120  2    43.98312158136131        102.98580596595467       5.0                      # Si
121  121  2    53.75746210265611        102.98580596595467       5.0                      # Si
122  122  2    63.5312383181648         102.98580596595467       5.0                      # Si
123  123  2    73.30557883945959        102.98580596595467       5.0                      # Si
124  124  2    83.07935505496829        108.62886382710289       5.0                      # Si
125  125  2    92.85369557626308        108.62886382710289       5.0                      # Si
126  126  2    102.62747179177177       108.62886382710289       5.0                      # Si
127  127  2    112.40181231306657       108.62886382710289       5.0                      # Si
128  128  2    122.17558852857526       108.62886382710289       5.0                      # Si
129  129  2    131.94992904987004       108.62886382710289       5.0                      # Si
130  130  2    141.72370526537873       108.62886382710289       5.0                      # Si
131  131  2    151.49804578667354       108.62886382710289       5.0                      # Si
132  132  2    4.886888107754343        108.62886382710289       5.0                      # Si
133  133  2    14.661228629049143       108.62886382710289       5.0                      # Si
134  134  2    24.435004844557827       108.62886382710289       5.0                      # Si
135  135  2    34.20934536585263        108.62886382710289       5.0                      # Si
136  136  2    43.98312158136131        108.62886382710289       5.0                      # Si
137  137  2    53.75746210265611        108.62886382710289       5.0                      # Si
138  138  2    63.5312383181648         108.62886382710289       5.0                      # Si
139  139  2    73.30557883945959        108.62886382710289       5.0                      # Si
140  140  2    78.19246694721394        111.45039275767698       5.0                      # Si
141  141  2    87.96680746850875        111.45039275767698       5.0                      # Si
142  142  2    97.74058368401742        111.45039275767698       5.0                      # Si
143  143  2    107.51492420531223       111.45039275767698       5.0                      # Si
144  144  2    117.28870042082092       111.45039275767698       5.0                      # Si
145  145  2    127.0630409421157        111.45039275767698       5.0                      # Si
146  146  2    136.83681715762438       111.45039275767698       5.0                      # Si
147  147  2    146.61115767891917       111.45039275767698       5.0                      # Si
148  148  2    156.3849338944279        111.45039275767698       5.0                      # Si
149  149  2    9.7743405212948          111.45039275767698       5.0                      # Si
150  150  2    19.548116736803486       111.45039275767698       5.0                      # Si
151  151  2    29.322457258098286       111.45039275767698       5.0                      # Si
152  152  2    39.09623347360697        111.45039275767698       5.0                      # Si
153  153  2    48.87057399490177        111.45039275767698       5.0                      # Si
154  154  2    58.64435021041046        111.45039275767698       5.0                      # Si
155  155  2    68.41869073170525        111.45039275767698       5.0                      # Si
156  156  2    87.96680746850875        117.09345061882519       5.0                      # Si
157  157  2    97.74058368401742        117.09345061882519       5.0                      # Si
158  158  2    107.51492420531223       117.09345061882519       5.0                      # Si
159  159  2    117.28870042082092       117.09345061882519       5.0                      # Si
160  160  2    127.0630409421157        117.09345061882519       5.0                      # Si
161  161  2    136.83681715762438       117.09345061882519       5.0                      # Si
162  162  2    146.61115767891917       117.09345061882519       5.0                      # Si
163  163  2    156.3849338944279        117.09345061882519       5.0                      # Si
164  164  2    9.7743405212948          117.09345061882519       5.0                      # Si
165  165  2    19.548116736803486       117.09345061882519       5.0                      # Si
166  166  2    29.322457258098286       117.09345061882519       5.0                      # Si
167  167  2    39.09623347360697        117.09345061882519       5.0                      # Si
168  168  2    48.87057399490177        117.09345061882519       5.0                      # Si
169  169  2    58.64435021041046        117.09345061882519       5.0                      # Si
170  170  2    68.41869073170525        117.09345061882519       5.0                      # Si
171  171  2    78.19246694721394        117.09345061882519       5.0                      # Si
172  172  2    83.07935505496829        119.91497954939929       5.0                      # Si
173  173  2    92.85369557626308        119.91497954939929       5.0                      # Si
174  174  2    102.62747179177177       119.91497954939929       5.0                      # Si
175  175  2    112.40181231306657       119.91497954939929       5.0                      # Si
176  176  2    122.17558852857526       119.91497954939929       5.0                      # Si
177  177  2    131.94992904987004       119.91497954939929       5.0                      # Si
178  178  2    141.72370526537873       119.91497954939929       5.0                      # Si
179  179  2    151.49804578667354       119.91497954939929       5.0                      # Si
180  180  2    4.886888107754343        119.91497954939929       5.0                      # Si
181  181  2    14.661228629049143       119.91497954939929       5.0                      # Si
182  182  2    24.435004844557827       119.91497954939929       5.0                      # Si
183  183  2    34.20934536585263        119.91497954939929       5.0                      # Si
184  184  2    43.98312158136131        119.91497954939929       5.0                      # Si
185  185  2    53.75746210265611        119.91497954939929       5.0                      # Si
186  186  2    63.5312383181648         119.91497954939929       5.0                      # Si
187  187  2    73.30557883945959        119.91497954939929       5.0                      # Si
188  188  2    83.07935505496829        125.5580374105475        5.0                      # Si
189  189  2    92.85369557626308        125.5580374105475        5.0                      # Si
190  190  2    102.62747179177177       125.5580374105475        5.0                      # Si
191  191  2    112.40181231306657       125.5580374105475        5.0                      # Si
192  192  2    122.17558852857526       125.5580374105475        5.0                      # Si
193  193  2    131.94992904987004       125.5580374105475        5.0                      # Si
194  194  2    141.72370526537873       125.5580374105475        5.0                      # Si
195  195  2    151.49804578667354       125.5580374105475        5.0                      # Si
196  196  2    4.886888107754343        125.5580374105475        5.0                      # Si
197  197  2    14.661228629049143       125.5580374105475        5.0                      # Si
198  198  2    24.435004844557827       125.5580374105475        5.0                      # Si
199  199  2    34.20934536585263        125.5580374105475        5.0                      # Si
200  200  2    43.98312158136131        125.5580374105475        5.0                      # Si
201  201  2    53.75746210265611        125.5580374105475        5.0                      # Si
202  202  2    63.5312383181648         125.5580374105475        5.0                      # Si
203  203  2    73.30557883945959        125.5580374105475        5.0                      # Si
204  204  2    78.19246694721394        128.3795663411216        5.0                      # Si
205  205  2    87.96680746850875        128.3795663411216        5.0                      # Si
206  206  2    97.74058368401742        128.3795663411216        5.0                      # Si
207  207  2    107.51492420531223       128.3795663411216        5.0                      # Si
208  208  2    117.28870042082092       128.3795663411216        5.0                      # Si
209  209  2    127.0630409421157        128.3795663411216        5.0                      # Si
210  210  2    136.83681715762438       128.3795663411216        5.0                      # Si
211  211  2    146.61115767891917       128.3795663411216        5.0                      # Si
212  212  2    156.3849338944279        128.3795663411216        5.0                      # Si
213  213  2    9.7743405212948          128.3795663411216        5.0                      # Si
214  214  2    19.548116736803486       128.3795663411216        5.0                      # Si
215  215  2    29.322457258098286       128.3795663411216        5.0                      # Si
216  216  2    39.09623347360697        128.3795663411216        5.0                      # Si
217  217  2    48.87057399490177        128.3795663411216        5.0                      # Si
218  218  2    58.64435021041046        128.3795663411216        5.0                      # Si
219  219  2    68.41869073170525        128.3795663411216        5.0                      # Si
220  220  2    87.96680746850875        134.02262420226978       5.0                      # Si
221  221  2    97.74058368401742        134.02262420226978       5.0                      # Si
222  222  2    107.51492420531223       134.02262420226978       5.0                      # Si
223  223  2    117.28870042082092       134.02262420226978       5.0                      # Si
224  224  2    127.0630409421157        134.02262420226978       5.0                      # Si
225  225  2    136.83681715762438       134.02262420226978       5.0                      # Si
226  226  2    146.61115767891917       134.02262420226978       5.0                      # Si
227  227  2    156.3849338944279        134.02262420226978       5.0                      # Si
228  228  2    9.7743405212948          134.02262420226978       5.0                      # Si
229  229  2    19.548116736803486       134.02262420226978       5.0                      # Si
230  230  2    29.322457258098286       134.02262420226978       5.0                      # Si
231  231  2    39.09623347360697        134.02262420226978       5.0                      # Si
232  232  2    48.87057399490177        134.02262420226978       5.0                      # Si
233  233  2    58.64435021041046        134.02262420226978       5.0                      # Si
234  234  2    68.41869073170525        134.02262420226978       5.0                      # Si
235  235  2    78.19246694721394        134.02262420226978       5.0                      # Si
236  236  2    83.07935505496829        1.4107644652870504       5.0                      # Si
237  237  2    92.85369557626308        1.4107644652870504       5.0                      # Si
238  238  2    102.62747179177177       1.4107644652870504       5.0                      # Si
239  239  2    112.40181231306657       1.4107644652870504       5.0                      # Si
240  240  2    122.17558852857526       1.4107644652870504       5.0                      # Si
241  241  2    131.94992904987004       1.4107644652870504       5.0                      # Si
242  242  2    141.72370526537873       1.4107644652870504       5.0                      # Si
243  243  2    151.49804578667354       1.4107644652870504       5.0                      # Si
244  244  2    4.886888107754343        1.4107644652870504       5.0                      # Si
245  245  2    14.661228629049143       1.4107644652870504       5.0                      # Si
246  246  2    24.435004844557827       1.4107644652870504       5.0                      # Si
247  247  2    34.20934536585263        1.4107644652870504       5.0                      # Si
248  248  2    43.98312158136131        1.4107644652870504       5.0                      # Si
249  249  2    53.75746210265611        1.4107644652870504       5.0                      # Si
250  250  2    63.5312383181648         1.4107644652870504       5.0                      # Si
251  251  2    73.30557883945959        1.4107644652870504       5.0                      # Si
252  252  2    83.07935505496829        7.0538223264352515       5.0                      # Si
253  253  2    92.85369557626308        7.0538223264352515       5.0                      # Si
254  254  2    102.62747179177177       7.0538223264352515       5.0                      # Si
255  255  2    112.40181231306657       7.0538223264352515       5.0                      # Si
256  256  2    122.17558852857526       7.0538223264352515       5.0                      # Si
257  257  2    131.94992904987004       7.0538223264352515       5.0                      # Si
258  258  2    141.72370526537873       7.0538223264352515       5.0                      # Si
259  259  2    151.49804578667354       7.0538223264352515       5.0                      # Si
260  260  2    4.886888107754343        7.0538223264352515       5.0                      # Si
261  261  2    14.661228629049143       7.0538223264352515       5.0                      # Si
262  262  2    24.435004844557827       7.0538223264352515       5.0                      # Si
263  263  2    34.20934536585263        7.0538223264352515       5.0                      # Si
264  264  2    43.98312158136131        7.0538223264352515       5.0                      # Si
265  265  2    53.75746210265611        7.0538223264352515       5.0                      # Si
266  266  2    63.5312383181648         7.0538223264352515       5.0                      # Si
267  267  2    73.30557883945959        7.0538223264352515       5.0                      # Si
268  268  2    78.19246694721394        9.875351257009353        5.0                      # Si
269  269  2    87.96680746850875        9.875351257009353        5.0                      # Si
270  270  2    97.74058368401742        9.875351257009353        5.0                      # Si
271  271  2    107.51492420531223       9.875351257009353        5.0                      # Si
272  272  2    117.28870042082092       9.875351257009353        5.0                      # Si
273  273  2    127.0630409421157        9.875351257009353        5.0                      # Si
274  274  2    136.83681715762438       9.875351257009353        5.0                      # Si
275  275  2    146.61115767891917       9.875351257009353        5.0                      # Si
276  276  2    156.3849338944279        9.875351257009353        5.0                      # Si
277  277  2    9.7743405212948          9.875351257009353        5.0                      # Si
278  278  2    19.548116736803486       9.875351257009353        5.0                      # Si
279  279  2    29.322457258098286       9.875351257009353        5.0                      # Si
280  280  2    39.09623347360697        9.875351257009353        5.0                      # Si
281  281  2    48.87057399490177        9.875351257009353        5.0                      # Si
282  282  2    58.64435021041046        9.875351257009353        5.0                      # Si
283  283  2    68.41869073170525        9.875351257009353        5.0                      # Si
284  284  2    87.96680746850875        15.518409118157553       5.0                      # Si
285  285  2    97.74058368401742        15.518409118157553       5.0                      # Si
286  286  2    107.51492420531223       15.518409118157553       5.0                      # Si
287  287  2    117.28870042082092       15.518409118157553       5.0                      # Si
288  288  2    127.0630409421157        15.518409118157553       5.0                      # Si
289  289  2    136.83681715762438       15.518409118157553       5.0                      # Si
290  290  2    146.61115767891917       15.518409118157553       5.0                      # Si
291  291  2    156.3849338944279        15.518409118157553       5.0                      # Si
292  292  2    9.7743405212948          15.518409118157553       5.0                      # Si
293  293  2    19.548116736803486       15.518409118157553       5.0                      # Si
294  294  2    29.322457258098286       15.518409118157553       5.0                      # Si
295  295  2    39.09623347360697        15.518409118157553       5.0                      # Si
296  296  2    48.87057399490177        15.518409118157553       5.0                      # Si
297  297  2    58.64435021041046        15.518409118157553       5.0                      # Si
298  298  2    68.41869073170525        15.518409118157553       5.0                      # Si
299  299  2    78.19246694721394        15.518409118157553       5.0                      # Si
300  300  2    83.07935505496829        18.339938048731657       5.0                      # Si
301  301  2    92.85369557626308        18.339938048731657       5.0                      # Si
302  302  2    102.62747179177177       18.339938048731657       5.0                      # Si
303  303  2    112.40181231306657       18.339938048731657       5.0                      # Si
304  304  2    122.17558852857526       18.339938048731657       5.0                      # Si
305  305  2    131.94992904987004       18.339938048731657       5.0                      # Si
306  306  2    141.72370526537873       18.339938048731657       5.0                      # Si
307  307  2    151.49804578667354       18.339938048731657       5.0                      # Si
308  308  2    4.886888107754343        18.339938048731657       5.0                      # Si
309  309  2    14.661228629049143       18.339938048731657       5.0                      # Si
310  310  2    24.435004844557827       18.339938048731657       5.0                      # Si
311  311  2    34.20934536585263        18.339938048731657       5.0                      # Si