DATA FILE Produced from netmc results (cf David Morley)
1560 atoms
5200 bonds
0 angles
0 dihedrals
0 impropers
2 atom types
0 bond types
2 bond types
0 angle types
0 dihedral types
0 improper types
0.00000 121.63082767693196 xlo xhi
0.00000 105.43573181124025 ylo yhi
0.0000 200.0000 zlo zhi

# Pair Coeffs
#
# 1  O
# 2  Si

# Bond Coeffs
# 
# 1  O-O
# 2  Si-O
# 3  O-O rep
# 4  Si-Si rep

 Masses

1 28.10000 # O 
2 32.01000 # Si

 Atoms # molecular

1    1    1    86.1549818539207         60.03979171947475        8.040569334518267        # O
2    2    1    96.2911719125169         60.03979171947475        8.040569334518267        # O
3    3    1    106.42677671048784       60.03979171947475        8.040569334518267        # O
4    4    1    116.56296676908403       60.03979171947475        8.040569334518267        # O
5    5    1    5.067802427652225        60.03979171947475        8.040569334518267        # O
6    6    1    15.203992428914896       60.03979171947475        8.040569334518267        # O
7    7    1    25.339597284219344       60.03979171947475        8.040569334518267        # O
8    8    1    35.47578728548201        60.03979171947475        8.040569334518267        # O
9    9    1    81.08717942626848        62.96856207941671        8.040569334518267        # O
10   10   1    91.22336948486468        62.96856207941671        8.040569334518267        # O
11   11   1    101.35897434016913       62.96856207941671        8.040569334518267        # O
12   12   1    111.4951643414318        62.96856207941671        8.040569334518267        # O
13   13   1    121.63076919673624       62.96856207941671        8.040569334518267        # O
14   14   1    10.136190001262671       62.96856207941671        8.040569334518267        # O
15   15   1    20.27179485656712        62.96856207941671        8.040569334518267        # O
16   16   1    30.40798491516332        62.96856207941671        8.040569334518267        # O
17   17   1    40.54358971313424        62.96856207941671        8.040569334518267        # O
18   18   1    91.22336948486468        68.8261026846336         8.040569334518267        # O
19   19   1    101.35897434016913       68.8261026846336         8.040569334518267        # O
20   20   1    111.4951643414318        68.8261026846336         8.040569334518267        # O
21   21   1    121.63076919673624       68.8261026846336         8.040569334518267        # O
22   22   1    10.136190001262671       68.8261026846336         8.040569334518267        # O
23   23   1    20.27179485656712        68.8261026846336         8.040569334518267        # O
24   24   1    30.40798491516332        68.8261026846336         8.040569334518267        # O
25   25   1    86.1549818539207         71.75487304457556        8.040569334518267        # O
26   26   1    96.2911719125169         71.75487304457556        8.040569334518267        # O
27   27   1    106.42677671048784       71.75487304457556        8.040569334518267        # O
28   28   1    116.56296676908403       71.75487304457556        8.040569334518267        # O
29   29   1    5.067802427652225        71.75487304457556        8.040569334518267        # O
30   30   1    15.203992428914896       71.75487304457556        8.040569334518267        # O
31   31   1    25.339597284219344       71.75487304457556        8.040569334518267        # O
32   32   1    35.47578728548201        71.75487304457556        8.040569334518267        # O
33   33   1    86.1549818539207         77.61241370712597        8.040569334518267        # O
34   34   1    96.2911719125169         77.61241370712597        8.040569334518267        # O
35   35   1    106.42677671048784       77.61241370712597        8.040569334518267        # O
36   36   1    116.56296676908403       77.61241370712597        8.040569334518267        # O
37   37   1    5.067802427652225        77.61241370712597        8.040569334518267        # O
38   38   1    15.203992428914896       77.61241370712597        8.040569334518267        # O
39   39   1    25.339597284219344       77.61241370712597        8.040569334518267        # O
40   40   1    35.47578728548201        77.61241370712597        8.040569334518267        # O
41   41   1    60.81538456970136        80.54118400973441        8.040569334518267        # O
42   42   1    70.95157462829755        80.54118400973441        8.040569334518267        # O
43   43   1    81.08717942626848        80.54118400973441        8.040569334518267        # O
44   44   1    91.22336948486468        80.54118400973441        8.040569334518267        # O
45   45   1    101.35897434016913       80.54118400973441        8.040569334518267        # O
46   46   1    111.4951643414318        80.54118400973441        8.040569334518267        # O
47   47   1    121.63076919673624       80.54118400973441        8.040569334518267        # O
48   48   1    10.136190001262671       80.54118400973441        8.040569334518267        # O
49   49   1    20.27179485656712        80.54118400973441        8.040569334518267        # O
50   50   1    30.40798491516332        80.54118400973441        8.040569334518267        # O
51   51   1    40.54358971313424        80.54118400973441        8.040569334518267        # O
52   52   1    50.67977977173044        80.54118400973441        8.040569334518267        # O
53   53   1    70.95157462829755        86.3987246722848         8.040569334518267        # O
54   54   1    81.08717942626848        86.3987246722848         8.040569334518267        # O
55   55   1    91.22336948486468        86.3987246722848         8.040569334518267        # O
56   56   1    101.35897434016913       86.3987246722848         8.040569334518267        # O
57   57   1    111.4951643414318        86.3987246722848         8.040569334518267        # O
58   58   1    121.63076919673624       86.3987246722848         8.040569334518267        # O
59   59   1    10.136190001262671       86.3987246722848         8.040569334518267        # O
60   60   1    20.27179485656712        86.3987246722848         8.040569334518267        # O
61   61   1    30.40798491516332        86.3987246722848         8.040569334518267        # O
62   62   1    40.54358971313424        86.3987246722848         8.040569334518267        # O
63   63   1    50.67977977173044        86.3987246722848         8.040569334518267        # O
64   64   1    60.81538456970136        86.3987246722848         8.040569334518267        # O
65   65   1    65.88318699735359        89.32749503222678        8.040569334518267        # O
66   66   1    76.01937705594979        89.32749503222678        8.040569334518267        # O
67   67   1    86.1549818539207         89.32749503222678        8.040569334518267        # O
68   68   1    96.2911719125169         89.32749503222678        8.040569334518267        # O
69   69   1    106.42677671048784       89.32749503222678        8.040569334518267        # O
70   70   1    116.56296676908403       89.32749503222678        8.040569334518267        # O
71   71   1    5.067802427652225        89.32749503222678        8.040569334518267        # O
72   72   1    15.203992428914896       89.32749503222678        8.040569334518267        # O
73   73   1    25.339597284219344       89.32749503222678        8.040569334518267        # O
74   74   1    35.47578728548201        89.32749503222678        8.040569334518267        # O
75   75   1    45.61139214078647        89.32749503222678        8.040569334518267        # O
76   76   1    55.74758219938266        89.32749503222678        8.040569334518267        # O
77   77   1    65.88318699735359        95.18503563744366        8.040569334518267        # O
78   78   1    76.01937705594979        95.18503563744366        8.040569334518267        # O
79   79   1    86.1549818539207         95.18503563744366        8.040569334518267        # O
80   80   1    96.2911719125169         95.18503563744366        8.040569334518267        # O
81   81   1    106.42677671048784       95.18503563744366        8.040569334518267        # O
82   82   1    116.56296676908403       95.18503563744366        8.040569334518267        # O
83   83   1    5.067802427652225        95.18503563744366        8.040569334518267        # O
84   84   1    15.203992428914896       95.18503563744366        8.040569334518267        # O
85   85   1    25.339597284219344       95.18503563744366        8.040569334518267        # O
86   86   1    35.47578728548201        95.18503563744366        8.040569334518267        # O
87   87   1    45.61139214078647        95.18503563744366        8.040569334518267        # O
88   88   1    55.74758219938266        95.18503563744366        8.040569334518267        # O
89   89   1    60.81538456970136        98.11380599738561        8.040569334518267        # O
90   90   1    70.95157462829755        98.11380599738561        8.040569334518267        # O
91   91   1    81.08717942626848        98.11380599738561        8.040569334518267        # O
92   92   1    91.22336948486468        98.11380599738561        8.040569334518267        # O
93   93   1    101.35897434016913       98.11380599738561        8.040569334518267        # O
94   94   1    111.4951643414318        98.11380599738561        8.040569334518267        # O
95   95   1    121.63076919673624       98.11380599738561        8.040569334518267        # O
96   96   1    10.136190001262671       98.11380599738561        8.040569334518267        # O
97   97   1    20.27179485656712        98.11380599738561        8.040569334518267        # O
98   98   1    30.40798491516332        98.11380599738561        8.040569334518267        # O
99   99   1    40.54358971313424        98.11380599738561        8.040569334518267        # O
100  100  1    50.67977977173044        98.11380599738561        8.040569334518267        # O
101  101  1    70.95157462829755        103.97134665993602       8.040569334518267        # O
102  102  1    81.08717942626848        103.97134665993602       8.040569334518267        # O
103  103  1    91.22336948486468        103.97134665993602       8.040569334518267        # O
104  104  1    101.35897434016913       103.97134665993602       8.040569334518267        # O
105  105  1    111.4951643414318        103.97134665993602       8.040569334518267        # O
106  106  1    121.63076919673624       103.97134665993602       8.040569334518267        # O
107  107  1    10.136190001262671       103.97134665993602       8.040569334518267        # O
108  108  1    20.27179485656712        103.97134665993602       8.040569334518267        # O
109  109  1    30.40798491516332        103.97134665993602       8.040569334518267        # O
110  110  1    40.54358971313424        103.97134665993602       8.040569334518267        # O
111  111  1    50.67977977173044        103.97134665993602       8.040569334518267        # O
112  112  1    60.81538456970136        103.97134665993602       8.040569334518267        # O
113  113  1    65.88318699735359        1.4643851513042199       8.040569334518267        # O
114  114  1    76.01937705594979        1.4643851513042199       8.040569334518267        # O
115  115  1    86.1549818539207         1.4643851513042199       8.040569334518267        # O
116  116  1    96.2911719125169         1.4643851513042199       8.040569334518267        # O
117  117  1    106.42677671048784       1.4643851513042199       8.040569334518267        # O
118  118  1    116.56296676908403       1.4643851513042199       8.040569334518267        # O
119  119  1    5.067802427652225        1.4643851513042199       8.040569334518267        # O
120  120  1    15.203992428914896       1.4643851513042199       8.040569334518267        # O
121  121  1    25.339597284219344       1.4643851513042199       8.040569334518267        # O
122  122  1    35.47578728548201        1.4643851513042199       8.040569334518267        # O
123  123  1    45.61139214078647        1.4643851513042199       8.040569334518267        # O
124  124  1    55.74758219938266        1.4643851513042199       8.040569334518267        # O
125  125  1    65.88318699735359        7.321925813854625        8.040569334518267        # O
126  126  1    76.01937705594979        7.321925813854625        8.040569334518267        # O
127  127  1    86.1549818539207         7.321925813854625        8.040569334518267        # O
128  128  1    96.2911719125169         7.321925813854625        8.040569334518267        # O
129  129  1    106.42677671048784       7.321925813854625        8.040569334518267        # O
130  130  1    116.56296676908403       7.321925813854625        8.040569334518267        # O
131  131  1    5.067802427652225        7.321925813854625        8.040569334518267        # O
132  132  1    15.203992428914896       7.321925813854625        8.040569334518267        # O
133  133  1    25.339597284219344       7.321925813854625        8.040569334518267        # O
134  134  1    35.47578728548201        7.321925813854625        8.040569334518267        # O
135  135  1    45.61139214078647        7.321925813854625        8.040569334518267        # O
136  136  1    55.74758219938266        7.321925813854625        8.040569334518267        # O
137  137  1    60.81538456970136        10.250696173796591       8.040569334518267        # O
138  138  1    70.95157462829755        10.250696173796591       8.040569334518267        # O
139  139  1    81.08717942626848        10.250696173796591       8.040569334518267        # O
140  140  1    91.22336948486468        10.250696173796591       8.040569334518267        # O
141  141  1    101.35897434016913       10.250696173796591       8.040569334518267        # O
142  142  1    111.4951643414318        10.250696173796591       8.040569334518267        # O
143  143  1    121.63076919673624       10.250696173796591       8.040569334518267        # O
144  144  1    10.136190001262671       10.250696173796591       8.040569334518267        # O
145  145  1    20.27179485656712        10.250696173796591       8.040569334518267        # O
146  146  1    30.40798491516332        10.250696173796591       8.040569334518267        # O
147  147  1    40.54358971313424        10.250696173796591       8.040569334518267        # O
148  148  1    50.67977977173044        10.250696173796591       8.040569334518267        # O
149  149  1    70.95157462829755        16.10823677901347        8.040569334518267        # O
150  150  1    81.08717942626848        16.10823677901347        8.040569334518267        # O
151  151  1    91.22336948486468        16.10823677901347        8.040569334518267        # O
152  152  1    101.35897434016913       16.10823677901347        8.040569334518267        # O
153  153  1    111.4951643414318        16.10823677901347        8.040569334518267        # O
154  154  1    121.63076919673624       16.10823677901347        8.040569334518267        # O
155  155  1    10.136190001262671       16.10823677901347        8.040569334518267        # O
156  156  1    20.27179485656712        16.10823677901347        8.040569334518267        # O
157  157  1    30.40798491516332        16.10823677901347        8.040569334518267        # O
158  158  1    40.54358971313424        16.10823677901347        8.040569334518267        # O
159  159  1    50.67977977173044        16.10823677901347        8.040569334518267        # O
160  160  1    60.81538456970136        16.10823677901347        8.040569334518267        # O
161  161  1    65.88318699735359        19.037007138955435       8.040569334518267        # O
162  162  1    76.01937705594979        19.037007138955435       8.040569334518267        # O
163  163  1    86.1549818539207         19.037007138955435       8.040569334518267        # O
164  164  1    96.2911719125169         19.037007138955435       8.040569334518267        # O
165  165  1    106.42677671048784       19.037007138955435       8.040569334518267        # O
166  166  1    116.56296676908403       19.037007138955435       8.040569334518267        # O
167  167  1    5.067802427652225        19.037007138955435       8.040569334518267        # O
168  168  1    15.203992428914896       19.037007138955435       8.040569334518267        # O
169  169  1    25.339597284219344       19.037007138955435       8.040569334518267        # O
170  170  1    35.47578728548201        19.037007138955435       8.040569334518267        # O
171  171  1    45.61139214078647        19.037007138955435       8.040569334518267        # O
172  172  1    55.74758219938266        19.037007138955435       8.040569334518267        # O
173  173  1    65.88318699735359        24.894547801505844       8.040569334518267        # O
174  174  1    76.01937705594979        24.894547801505844       8.040569334518267        # O
175  175  1    86.1549818539207         24.894547801505844       8.040569334518267        # O
176  176  1    96.2911719125169         24.894547801505844       8.040569334518267        # O
177  177  1    106.42677671048784       24.894547801505844       8.040569334518267        # O
178  178  1    116.56296676908403       24.894547801505844       8.040569334518267        # O
179  179  1    5.067802427652225        24.894547801505844       8.040569334518267        # O
180  180  1    15.203992428914896       24.894547801505844       8.040569334518267        # O
181  181  1    25.339597284219344       24.894547801505844       8.040569334518267        # O
182  182  1    35.47578728548201        24.894547801505844       8.040569334518267        # O
183  183  1    45.61139214078647        24.894547801505844       8.040569334518267        # O
184  184  1    55.74758219938266        24.894547801505844       8.040569334518267        # O
185  185  1    60.81538456970136        27.82331810411428        8.040569334518267        # O
186  186  1    70.95157462829755        27.82331810411428        8.040569334518267        # O
187  187  1    81.08717942626848        27.82331810411428        8.040569334518267        # O
188  188  1    91.22336948486468        27.82331810411428        8.040569334518267        # O
189  189  1    101.35897434016913       27.82331810411428        8.040569334518267        # O
190  190  1    111.4951643414318        27.82331810411428        8.040569334518267        # O
191  191  1    121.63076919673624       27.82331810411428        8.040569334518267        # O
192  192  1    10.136190001262671       27.82331810411428        8.040569334518267        # O
193  193  1    20.27179485656712        27.82331810411428        8.040569334518267        # O
194  194  1    30.40798491516332        27.82331810411428        8.040569334518267        # O
195  195  1    40.54358971313424        27.82331810411428        8.040569334518267        # O
196  196  1    50.67977977173044        27.82331810411428        8.040569334518267        # O
197  197  1    70.95157462829755        33.680858766664684       8.040569334518267        # O
198  198  1    81.08717942626848        33.680858766664684       8.040569334518267        # O
199  199  1    91.22336948486468        33.680858766664684       8.040569334518267        # O
200  200  1    101.35897434016913       33.680858766664684       8.040569334518267        # O
201  201  1    111.4951643414318        33.680858766664684       8.040569334518267        # O
202  202  1    121.63076919673624       33.680858766664684       8.040569334518267        # O
203  203  1    10.136190001262671       33.680858766664684       8.040569334518267        # O
204  204  1    20.27179485656712        33.680858766664684       8.040569334518267        # O
205  205  1    30.40798491516332        33.680858766664684       8.040569334518267        # O
206  206  1    40.54358971313424        33.680858766664684       8.040569334518267        # O
207  207  1    50.67977977173044        33.680858766664684       8.040569334518267        # O
208  208  1    60.81538456970136        33.680858766664684       8.040569334518267        # O
209  209  1    65.88318699735359        36.60962912660665        8.040569334518267        # O
210  210  1    76.01937705594979        36.60962912660665        8.040569334518267        # O
211  211  1    86.1549818539207         36.60962912660665        8.040569334518267        # O
212  212  1    96.2911719125169         36.60962912660665        8.040569334518267        # O
213  213  1    106.42677671048784       36.60962912660665        8.040569334518267        # O
214  214  1    116.56296676908403       36.60962912660665        8.040569334518267        # O
215  215  1    5.067802427652225        36.60962912660665        8.040569334518267        # O
216  216  1    15.203992428914896       36.60962912660665        8.040569334518267        # O
217  217  1    25.339597284219344       36.60962912660665        8.040569334518267        # O
218  218  1    35.47578728548201        36.60962912660665        8.040569334518267        # O
219  219  1    45.61139214078647        36.60962912660665        8.040569334518267        # O
220  220  1    55.74758219938266        36.60962912660665        8.040569334518267        # O
221  221  1    76.01937705594979        42.46716973182353        8.040569334518267        # O
222  222  1    86.1549818539207         42.46716973182353        8.040569334518267        # O
223  223  1    96.2911719125169         42.46716973182353        8.040569334518267        # O
224  224  1    106.42677671048784       42.46716973182353        8.040569334518267        # O
225  225  1    116.56296676908403       42.46716973182353        8.040569334518267        # O
226  226  1    5.067802427652225        42.46716973182353        8.040569334518267        # O
227  227  1    15.203992428914896       42.46716973182353        8.040569334518267        # O
228  228  1    25.339597284219344       42.46716973182353        8.040569334518267        # O
229  229  1    35.47578728548201        42.46716973182353        8.040569334518267        # O
230  230  1    45.61139214078647        42.46716973182353        8.040569334518267        # O
231  231  1    70.95157462829755        45.395940091765496       8.040569334518267        # O
232  232  1    81.08717942626848        45.395940091765496       8.040569334518267        # O
233  233  1    91.22336948486468        45.395940091765496       8.040569334518267        # O
234  234  1    101.35897434016913       45.395940091765496       8.040569334518267        # O
235  235  1    111.4951643414318        45.395940091765496       8.040569334518267        # O
236  236  1    121.63076919673624       45.395940091765496       8.040569334518267        # O
237  237  1    10.136190001262671       45.395940091765496       8.040569334518267        # O
238  238  1    20.27179485656712        45.395940091765496       8.040569334518267        # O
239  239  1    30.40798491516332        45.395940091765496       8.040569334518267        # O
240  240  1    40.54358971313424        45.395940091765496       8.040569334518267        # O
241  241  1    50.67977977173044        45.395940091765496       8.040569334518267        # O
242  242  1    81.08717942626848        51.25348075431591        8.040569334518267        # O
243  243  1    91.22336948486468        51.25348075431591        8.040569334518267        # O
244  244  1    101.35897434016913       51.25348075431591        8.040569334518267        # O
245  245  1    111.4951643414318        51.25348075431591        8.040569334518267        # O
246  246  1    121.63076919673624       51.25348075431591        8.040569334518267        # O
247  247  1    10.136190001262671       51.25348075431591        8.040569334518267        # O
248  248  1    20.27179485656712        51.25348075431591        8.040569334518267        # O
249  249  1    30.40798491516332        51.25348075431591        8.040569334518267        # O
250  250  1    40.54358971313424        51.25348075431591        8.040569334518267        # O
251  251  1    76.01937705594979        54.182251056924336       8.040569334518267        # O
252  252  1    86.1549818539207         54.182251056924336       8.040569334518267        # O
253  253  1    96.2911719125169         54.182251056924336       8.040569334518267        # O
254  254  1    106.42677671048784       54.182251056924336       8.040569334518267        # O
255  255  1    116.56296676908403       54.182251056924336       8.040569334518267        # O
256  256  1    5.067802427652225        54.182251056924336       8.040569334518267        # O
257  257  1    15.203992428914896       54.182251056924336       8.040569334518267        # O
258  258  1    25.339597284219344       54.182251056924336       8.040569334518267        # O
259  259  1    35.47578728548201        54.182251056924336       8.040569334518267        # O
260  260  1    45.61139214078647        54.182251056924336       8.040569334518267        # O
261  261  1    83.62108064009459        61.504176899445724       3.98503710016194         # O
262  262  1    83.62108064009459        61.504176899445724       12.096101568874595       # O
263  263  1    88.43917566939268        61.93718960133794        3.98503710016194         # O
264  264  1    88.43917566939268        61.93718960133794        12.096101568874595       # O
265  265  1    86.6549818539207         57.111021388199546       3.98503710016194         # O
266  266  1    86.6549818539207         57.111021388199546       12.096101568874595       # O
267  267  1    93.75727069869079        61.504176899445724       3.98503710016194         # O
268  268  1    93.75727069869079        61.504176899445724       12.096101568874595       # O
269  269  1    98.57507312634301        61.93718960133794        3.98503710016194         # O
270  270  1    98.57507312634301        61.93718960133794        12.096101568874595       # O
271  271  1    96.7911719125169         57.111021388199546       3.98503710016194         # O
272  272  1    96.7911719125169         57.111021388199546       12.096101568874595       # O
273  273  1    103.89287552532849       61.504176899445724       3.98503710016194         # O
274  274  1    103.89287552532849       61.504176899445724       12.096101568874595       # O
275  275  1    108.71097052595982       61.93718960133794        3.98503710016194         # O
276  276  1    108.71097052595982       61.93718960133794        12.096101568874595       # O
277  277  1    106.92677671048784       57.111021388199546       3.98503710016194         # O
278  278  1    106.92677671048784       57.111021388199546       12.096101568874595       # O
279  279  1    114.02906555525792       61.504176899445724       3.98503710016194         # O
280  280  1    114.02906555525792       61.504176899445724       12.096101568874595       # O
281  281  1    118.84686798291014       61.93718960133794        3.98503710016194         # O
282  282  1    118.84686798291014       61.93718960133794        12.096101568874595       # O
283  283  1    117.06296676908403       57.111021388199546       3.98503710016194         # O
284  284  1    117.06296676908403       57.111021388199546       12.096101568874595       # O
285  285  1    2.533871973728253        61.504176899445724       3.98503710016194         # O
286  286  1    2.533871973728253        61.504176899445724       12.096101568874595       # O
287  287  1    7.351996214457448        61.93718960133794        3.98503710016194         # O
288  288  1    7.351996214457448        61.93718960133794        12.096101568874595       # O
289  289  1    5.567802427652225        57.111021388199546       3.98503710016194         # O
290  290  1    5.567802427652225        57.111021388199546       12.096101568874595       # O
291  291  1    12.670091215088783       61.504176899445724       3.98503710016194         # O
292  292  1    12.670091215088783       61.504176899445724       12.096101568874595       # O
293  293  1    17.487893642741007       61.93718960133794        3.98503710016194         # O
294  294  1    17.487893642741007       61.93718960133794        12.096101568874595       # O
295  295  1    15.703992428914896       57.111021388199546       3.98503710016194         # O
296  296  1    15.703992428914896       57.111021388199546       12.096101568874595       # O
297  297  1    22.805696070393232       61.504176899445724       3.98503710016194         # O
298  298  1    22.805696070393232       61.504176899445724       12.096101568874595       # O
299  299  1    27.62379109969133        61.93718960133794        3.98503710016194         # O
300  300  1    27.62379109969133        61.93718960133794        12.096101568874595       # O
301  301  1    25.839597284219344       57.111021388199546       3.98503710016194         # O
302  302  1    25.839597284219344       57.111021388199546       12.096101568874595       # O
303  303  1    32.94188610032266        61.504176899445724       3.98503710016194         # O
304  304  1    32.94188610032266        61.504176899445724       12.096101568874595       # O
305  305  1    37.759688499308126       61.93718960133794        3.98503710016194         # O
306  306  1    37.759688499308126       61.93718960133794        12.096101568874595       # O
307  307  1    35.97578728548201        57.111021388199546       3.98503710016194         # O
308  308  1    35.97578728548201        57.111021388199546       12.096101568874595       # O
309  309  1    83.62108064009459        67.36171756199613        3.98503710016194         # O
310  310  1    83.62108064009459        67.36171756199613        12.096101568874595       # O
311  311  1    78.55327824110913        58.57540656817052        3.98503710016194         # O
312  312  1    78.55327824110913        58.57540656817052        12.096101568874595       # O
313  313  1    91.72336948486468        65.89733238202516        3.98503710016194         # O
314  314  1    91.72336948486468        65.89733238202516        12.096101568874595       # O