DATA FILE Produced from netmc results (cf David Morley)
19992 atoms
1 atom types
0.00000 245.90201985698764 xlo xhi
0.00000 212.95739573914778 ylo yhi

 Masses

1 12.0000 # Si

 Atoms # molecular

1    1    124.1805684329948        108.25334283406679       0.0                     # C
2    1    126.63951649579616       108.25334283406679       0.0                     # C
3    1    129.09860653019467       108.25334283406679       0.0                     # C
4    1    131.55755459299604       108.25334283406679       0.0                     # C
5    1    134.01664462739458       108.25334283406679       0.0                     # C
6    1    136.47559269019592       108.25334283406679       0.0                     # C
7    1    138.93468272459444       108.25334283406679       0.0                     # C
8    1    141.3936307873958        108.25334283406679       0.0                     # C
9    1    143.85272082179432       108.25334283406679       0.0                     # C
10   1    146.3116688845957        108.25334283406679       0.0                     # C
11   1    148.7707589189942        108.25334283406679       0.0                     # C
12   1    151.22970698179557       108.25334283406679       0.0                     # C
13   1    153.6887970161941        108.25334283406679       0.0                     # C
14   1    156.14774507899546       108.25334283406679       0.0                     # C
15   1    158.60683511339397       108.25334283406679       0.0                     # C
16   1    161.0657831761953        108.25334283406679       0.0                     # C
17   1    163.52487321059382       108.25334283406679       0.0                     # C
18   1    165.9838212733952        108.25334283406679       0.0                     # C
19   1    168.4429113077937        108.25334283406679       0.0                     # C
20   1    170.90185937059508       108.25334283406679       0.0                     # C
21   1    173.3609494049936        108.25334283406679       0.0                     # C
22   1    175.81989746779496       108.25334283406679       0.0                     # C
23   1    178.27898750219347       108.25334283406679       0.0                     # C
24   1    180.73793556499484       108.25334283406679       0.0                     # C
25   1    183.19702559939336       108.25334283406679       0.0                     # C
26   1    185.65597366219473       108.25334283406679       0.0                     # C
27   1    188.11506369659324       108.25334283406679       0.0                     # C
28   1    190.5740117593946        108.25334283406679       0.0                     # C
29   1    193.03310179379312       108.25334283406679       0.0                     # C
30   1    195.4920498565945        108.25334283406679       0.0                     # C
31   1    197.951139890993         108.25334283406679       0.0                     # C
32   1    200.41008795379437       108.25334283406679       0.0                     # C
33   1    202.8691779881929        108.25334283406679       0.0                     # C
34   1    205.32812605099423       108.25334283406679       0.0                     # C
35   1    207.78721608539274       108.25334283406679       0.0                     # C
36   1    210.2461641481941        108.25334283406679       0.0                     # C
37   1    212.7052541825926        108.25334283406679       0.0                     # C
38   1    215.16420224539397       108.25334283406679       0.0                     # C
39   1    217.6232922797925        108.25334283406679       0.0                     # C
40   1    220.08224034259382       108.25334283406679       0.0                     # C
41   1    222.5413303769924        108.25334283406679       0.0                     # C
42   1    225.00027843979376       108.25334283406679       0.0                     # C
43   1    227.45936847419227       108.25334283406679       0.0                     # C
44   1    229.9184585085908        108.25334283406679       0.0                     # C
45   1    232.37740657139216       108.25334283406679       0.0                     # C
46   1    234.83649660579067       108.25334283406679       0.0                     # C
47   1    237.295444668592         108.25334283406679       0.0                     # C
48   1    239.75453470299053       108.25334283406679       0.0                     # C
49   1    242.2134827657919        108.25334283406679       0.0                     # C
50   1    244.6725728001904        108.25334283406679       0.0                     # C
51   1    1.2294740314006798       108.25334283406679       0.0                     # C
52   1    3.6885640657991994       108.25334283406679       0.0                     # C
53   1    6.147512128600559        108.25334283406679       0.0                     # C
54   1    8.606602162999078        108.25334283406679       0.0                     # C
55   1    11.065550225800438       108.25334283406679       0.0                     # C
56   1    13.524640260198957       108.25334283406679       0.0                     # C
57   1    15.983588323000316       108.25334283406679       0.0                     # C
58   1    18.442678357398837       108.25334283406679       0.0                     # C
59   1    20.901626420200195       108.25334283406679       0.0                     # C
60   1    23.360716454598712       108.25334283406679       0.0                     # C
61   1    25.819664517400074       108.25334283406679       0.0                     # C
62   1    28.278754551798595       108.25334283406679       0.0                     # C
63   1    30.737702614599957       108.25334283406679       0.0                     # C
64   1    33.196792648998475       108.25334283406679       0.0                     # C
65   1    35.65574071179983        108.25334283406679       0.0                     # C
66   1    38.11483074619835        108.25334283406679       0.0                     # C
67   1    40.57377880899971        108.25334283406679       0.0                     # C
68   1    43.03286884339823        108.25334283406679       0.0                     # C
69   1    45.49181690619959        108.25334283406679       0.0                     # C
70   1    47.9509069405981         108.25334283406679       0.0                     # C
71   1    50.409855003399464       108.25334283406679       0.0                     # C
72   1    52.868945037797985       108.25334283406679       0.0                     # C
73   1    55.32789310059935        108.25334283406679       0.0                     # C
74   1    57.78698313499787        108.25334283406679       0.0                     # C
75   1    60.24593119779923        108.25334283406679       0.0                     # C
76   1    62.70502123219774        108.25334283406679       0.0                     # C
77   1    65.1639692949991         108.25334283406679       0.0                     # C
78   1    67.62305932939762        108.25334283406679       0.0                     # C
79   1    70.08200739219897        108.25334283406679       0.0                     # C
80   1    72.5410974265975         108.25334283406679       0.0                     # C
81   1    75.00018746099602        108.25334283406679       0.0                     # C
82   1    77.45913552379739        108.25334283406679       0.0                     # C
83   1    79.9182255581959         108.25334283406679       0.0                     # C
84   1    82.37717362099725        108.25334283406679       0.0                     # C
85   1    84.83626365539578        108.25334283406679       0.0                     # C
86   1    87.29521171819714        108.25334283406679       0.0                     # C
87   1    89.75430175259567        108.25334283406679       0.0                     # C
88   1    92.21324981539702        108.25334283406679       0.0                     # C
89   1    94.67233984979553        108.25334283406679       0.0                     # C
90   1    97.13128791259689        108.25334283406679       0.0                     # C
91   1    99.5903779469954         108.25334283406679       0.0                     # C
92   1    102.04932600979677       108.25334283406679       0.0                     # C
93   1    104.50841604419529       108.25334283406679       0.0                     # C
94   1    106.96736410699664       108.25334283406679       0.0                     # C
95   1    109.42645414139518       108.25334283406679       0.0                     # C
96   1    111.88540220419654       108.25334283406679       0.0                     # C
97   1    114.34449223859507       108.25334283406679       0.0                     # C
98   1    116.80344030139642       108.25334283406679       0.0                     # C
99   1    119.26253033579492       108.25334283406679       0.0                     # C
100  1    121.7214783985963        108.25334283406679       0.0                     # C
101  1    122.95095242999697       108.96320081986394       0.0                     # C
102  1    125.41004246439547       108.96320081986394       0.0                     # C
103  1    127.86899052719684       108.96320081986394       0.0                     # C
104  1    130.32808056159536       108.96320081986394       0.0                     # C
105  1    132.78702862439673       108.96320081986394       0.0                     # C
106  1    135.24611865879524       108.96320081986394       0.0                     # C
107  1    137.7050667215966        108.96320081986394       0.0                     # C
108  1    140.16415675599512       108.96320081986394       0.0                     # C
109  1    142.6231048187965        108.96320081986394       0.0                     # C
110  1    145.082194853195         108.96320081986394       0.0                     # C
111  1    147.54114291599637       108.96320081986394       0.0                     # C
112  1    150.0002329503949        108.96320081986394       0.0                     # C
113  1    152.4593229847934        108.96320081986394       0.0                     # C
114  1    154.91827104759477       108.96320081986394       0.0                     # C
115  1    157.37736108199329       108.96320081986394       0.0                     # C
116  1    159.83630914479463       108.96320081986394       0.0                     # C
117  1    162.29539917919317       108.96320081986394       0.0                     # C
118  1    164.7543472419945        108.96320081986394       0.0                     # C
119  1    167.21343727639302       108.96320081986394       0.0                     # C
120  1    169.6723853391944        108.96320081986394       0.0                     # C
121  1    172.1314753735929        108.96320081986394       0.0                     # C
122  1    174.59042343639427       108.96320081986394       0.0                     # C
123  1    177.0495134707928        108.96320081986394       0.0                     # C
124  1    179.50846153359416       108.96320081986394       0.0                     # C
125  1    181.96755156799267       108.96320081986394       0.0                     # C
126  1    184.42649963079404       108.96320081986394       0.0                     # C
127  1    186.88558966519255       108.96320081986394       0.0                     # C
128  1    189.3445377279939        108.96320081986394       0.0                     # C
129  1    191.8036277623924        108.96320081986394       0.0                     # C
130  1    194.26257582519378       108.96320081986394       0.0                     # C
131  1    196.7216658595923        108.96320081986394       0.0                     # C
132  1    199.18061392239366       108.96320081986394       0.0                     # C
133  1    201.63970395679218       108.96320081986394       0.0                     # C
134  1    204.09865201959354       108.96320081986394       0.0                     # C
135  1    206.55774205399206       108.96320081986394       0.0                     # C
136  1    209.01669011679343       108.96320081986394       0.0                     # C
137  1    211.47578015119194       108.96320081986394       0.0                     # C
138  1    213.93472821399328       108.96320081986394       0.0                     # C
139  1    216.39381824839185       108.96320081986394       0.0                     # C
140  1    218.85276631119316       108.96320081986394       0.0                     # C
141  1    221.31185634559174       108.96320081986394       0.0                     # C
142  1    223.77080440839308       108.96320081986394       0.0                     # C
143  1    226.22989444279162       108.96320081986394       0.0                     # C
144  1    228.68884250559296       108.96320081986394       0.0                     # C
145  1    231.14793253999147       108.96320081986394       0.0                     # C
146  1    233.60688060279284       108.96320081986394       0.0                     # C
147  1    236.06597063719136       108.96320081986394       0.0                     # C
148  1    238.52491869999272       108.96320081986394       0.0                     # C
149  1    240.98400873439124       108.96320081986394       0.0                     # C
150  1    243.4429567971926        108.96320081986394       0.0                     # C
151  1    245.90204683159106       108.96320081986394       0.0                     # C
152  1    2.4590900343985194       108.96320081986394       0.0                     # C
153  1    4.9180380971998785       108.96320081986394       0.0                     # C
154  1    7.377128131598399        108.96320081986394       0.0                     # C
155  1    9.836076194399757        108.96320081986394       0.0                     # C
156  1    12.295166228798275       108.96320081986394       0.0                     # C
157  1    14.754114291599638       108.96320081986394       0.0                     # C
158  1    17.213204325998156       108.96320081986394       0.0                     # C
159  1    19.672152388799514       108.96320081986394       0.0                     # C
160  1    22.131242423198035       108.96320081986394       0.0                     # C
161  1    24.590190485999393       108.96320081986394       0.0                     # C
162  1    27.049280520397915       108.96320081986394       0.0                     # C
163  1    29.508228583199276       108.96320081986394       0.0                     # C
164  1    31.967318617597794       108.96320081986394       0.0                     # C
165  1    34.42626668039915        108.96320081986394       0.0                     # C
166  1    36.88535671479767        108.96320081986394       0.0                     # C
167  1    39.34430477759903        108.96320081986394       0.0                     # C
168  1    41.80339481199755        108.96320081986394       0.0                     # C
169  1    44.26234287479891        108.96320081986394       0.0                     # C
170  1    46.721432909197425       108.96320081986394       0.0                     # C
171  1    49.18038097199879        108.96320081986394       0.0                     # C
172  1    51.639471006397315       108.96320081986394       0.0                     # C
173  1    54.09841906919866        108.96320081986394       0.0                     # C
174  1    56.55750910359719        108.96320081986394       0.0                     # C
175  1    59.01645716639855        108.96320081986394       0.0                     # C
176  1    61.47554720079706        108.96320081986394       0.0                     # C
177  1    63.93449526359842        108.96320081986394       0.0                     # C
178  1    66.39358529799695        108.96320081986394       0.0                     # C
179  1    68.8525333607983         108.96320081986394       0.0                     # C
180  1    71.31162339519682        108.96320081986394       0.0                     # C
181  1    73.77057145799819        108.96320081986394       0.0                     # C
182  1    76.2296614923967         108.96320081986394       0.0                     # C
183  1    78.68860955519806        108.96320081986394       0.0                     # C
184  1    81.14769958959658        108.96320081986394       0.0                     # C
185  1    83.60664765239794        108.96320081986394       0.0                     # C
186  1    86.06573768679645        108.96320081986394       0.0                     # C
187  1    88.52468574959782        108.96320081986394       0.0                     # C
188  1    90.98377578399634        108.96320081986394       0.0                     # C
189  1    93.44272384679769        108.96320081986394       0.0                     # C
190  1    95.9018138811962         108.96320081986394       0.0                     # C
191  1    98.36076194399757        108.96320081986394       0.0                     # C
192  1    100.81985197839609       108.96320081986394       0.0                     # C
193  1    103.27880004119744       108.96320081986394       0.0                     # C
194  1    105.73789007559597       108.96320081986394       0.0                     # C
195  1    108.19683813839733       108.96320081986394       0.0                     # C
196  1    110.65592817279587       108.96320081986394       0.0                     # C
197  1    113.11487623559722       108.96320081986394       0.0                     # C
198  1    115.57396626999574       108.96320081986394       0.0                     # C
199  1    118.0329143327971        108.96320081986394       0.0                     # C
200  1    120.49200436719562       108.96320081986394       0.0                     # C
201  1    125.41004246439547       110.38291679145827       0.0                     # C
202  1    127.86899052719684       110.38291679145827       0.0                     # C
203  1    130.32808056159536       110.38291679145827       0.0                     # C
204  1    132.78702862439673       110.38291679145827       0.0                     # C
205  1    135.24611865879524       110.38291679145827       0.0                     # C
206  1    137.7050667215966        110.38291679145827       0.0                     # C
207  1    140.16415675599512       110.38291679145827       0.0                     # C
208  1    142.6231048187965        110.38291679145827       0.0                     # C
209  1    145.082194853195         110.38291679145827       0.0                     # C
210  1    147.54114291599637       110.38291679145827       0.0                     # C
211  1    150.0002329503949        110.38291679145827       0.0                     # C
212  1    152.4593229847934        110.38291679145827       0.0                     # C
213  1    154.91827104759477       110.38291679145827       0.0                     # C
214  1    157.37736108199329       110.38291679145827       0.0                     # C
215  1    159.83630914479463       110.38291679145827       0.0                     # C
216  1    162.29539917919317       110.38291679145827       0.0                     # C
217  1    164.7543472419945        110.38291679145827       0.0                     # C
218  1    167.21343727639302       110.38291679145827       0.0                     # C
219  1    169.6723853391944        110.38291679145827       0.0                     # C
220  1    172.1314753735929        110.38291679145827       0.0                     # C
221  1    174.59042343639427       110.38291679145827       0.0                     # C
222  1    177.0495134707928        110.38291679145827       0.0                     # C
223  1    179.50846153359416       110.38291679145827       0.0                     # C
224  1    181.96755156799267       110.38291679145827       0.0                     # C
225  1    184.42649963079404       110.38291679145827       0.0                     # C
226  1    186.88558966519255       110.38291679145827       0.0                     # C
227  1    189.3445377279939        110.38291679145827       0.0                     # C
228  1    191.8036277623924        110.38291679145827       0.0                     # C
229  1    194.26257582519378       110.38291679145827       0.0                     # C
230  1    196.7216658595923        110.38291679145827       0.0                     # C
231  1    199.18061392239366       110.38291679145827       0.0                     # C
232  1    201.63970395679218       110.38291679145827       0.0                     # C
233  1    204.09865201959354       110.38291679145827       0.0                     # C
234  1    206.55774205399206       110.38291679145827       0.0                     # C
235  1    209.01669011679343       110.38291679145827       0.0                     # C
236  1    211.47578015119194       110.38291679145827       0.0                     # C
237  1    213.93472821399328       110.38291679145827       0.0                     # C
238  1    216.39381824839185       110.38291679145827       0.0                     # C
239  1    218.85276631119316       110.38291679145827       0.0                     # C
240  1    221.31185634559174       110.38291679145827       0.0                     # C
241  1    223.77080440839308       110.38291679145827       0.0                     # C
242  1    226.22989444279162       110.38291679145827       0.0                     # C
243  1    228.68884250559296       110.38291679145827       0.0                     # C
244  1    231.14793253999147       110.38291679145827       0.0                     # C
245  1    233.60688060279284       110.38291679145827       0.0                     # C
246  1    236.06597063719136       110.38291679145827       0.0                     # C
247  1    238.52491869999272       110.38291679145827       0.0                     # C
248  1    240.98400873439124       110.38291679145827       0.0                     # C
249  1    243.4429567971926        110.38291679145827       0.0                     # C
250  1    245.90204683159106       110.38291679145827       0.0                     # C
251  1    2.4590900343985194       110.38291679145827       0.0                     # C
252  1    4.9180380971998785       110.38291679145827       0.0                     # C
253  1    7.377128131598399        110.38291679145827       0.0                     # C
254  1    9.836076194399757        110.38291679145827       0.0                     # C
255  1    12.295166228798275       110.38291679145827       0.0                     # C
256  1    14.754114291599638       110.38291679145827       0.0                     # C
257  1    17.213204325998156       110.38291679145827       0.0                     # C
258  1    19.672152388799514       110.38291679145827       0.0                     # C
259  1    22.131242423198035       110.38291679145827       0.0                     # C
260  1    24.590190485999393       110.38291679145827       0.0                     # C
261  1    27.049280520397915       110.38291679145827       0.0                     # C
262  1    29.508228583199276       110.38291679145827       0.0                     # C
263  1    31.967318617597794       110.38291679145827       0.0                     # C
264  1    34.42626668039915        110.38291679145827       0.0                     # C
265  1    36.88535671479767        110.38291679145827       0.0                     # C
266  1    39.34430477759903        110.38291679145827       0.0                     # C
267  1    41.80339481199755        110.38291679145827       0.0                     # C
268  1    44.26234287479891        110.38291679145827       0.0                     # C
269  1    46.721432909197425       110.38291679145827       0.0                     # C
270  1    49.18038097199879        110.38291679145827       0.0                     # C
271  1    51.639471006397315       110.38291679145827       0.0                     # C
272  1    54.09841906919866        110.38291679145827       0.0                     # C
273  1    56.55750910359719        110.38291679145827       0.0                     # C
274  1    59.01645716639855        110.38291679145827       0.0                     # C
275  1    61.47554720079706        110.38291679145827       0.0                     # C
276  1    63.93449526359842        110.38291679145827       0.0                     # C
277  1    66.39358529799695        110.38291679145827       0.0                     # C
278  1    68.8525333607983         110.38291679145827       0.0                     # C
279  1    71.31162339519682        110.38291679145827       0.0                     # C
280  1    73.77057145799819        110.38291679145827       0.0                     # C
281  1    76.2296614923967         110.38291679145827       0.0                     # C
282  1    78.68860955519806        110.38291679145827       0.0                     # C
283  1    81.14769958959658        110.38291679145827       0.0                     # C
284  1    83.60664765239794        110.38291679145827       0.0                     # C
285  1    86.06573768679645        110.38291679145827       0.0                     # C
286  1    88.52468574959782        110.38291679145827       0.0                     # C
287  1    90.98377578399634        110.38291679145827       0.0                     # C
288  1    93.44272384679769        110.38291679145827       0.0                     # C
289  1    95.9018138811962         110.38291679145827       0.0                     # C
290  1    98.36076194399757        110.38291679145827       0.0                     # C
291  1    100.81985197839609       110.38291679145827       0.0                     # C
292  1    103.27880004119744       110.38291679145827       0.0                     # C
293  1    105.73789007559597       110.38291679145827       0.0                     # C
294  1    108.19683813839733       110.38291679145827       0.0                     # C
295  1    110.65592817279587       110.38291679145827       0.0                     # C
296  1    113.11487623559722       110.38291679145827       0.0                     # C
297  1    115.57396626999574       110.38291679145827       0.0                     # C
298  1    118.0329143327971        110.38291679145827       0.0                     # C
299  1    120.49200436719562       110.38291679145827       0.0                     # C
300  1    122.95095242999697       110.38291679145827       0.0                     # C
301  1    124.1805684329948        111.09277477725543       0.0                     # C
302  1    126.63951649579616       111.09277477725543       0.0                     # C
303  1    129.09860653019467       111.09277477725543       0.0                     # C
304  1    131.55755459299604       111.09277477725543       0.0                     # C
305  1    134.01664462739458       111.09277477725543       0.0                     # C
306  1    136.47559269019592       111.09277477725543       0.0                     # C
307  1    138.93468272459444       111.09277477725543       0.0                     # C
308  1    141.3936307873958        111.09277477725543       0.0                     # C
309  1    143.85272082179432       111.09277477725543       0.0                     # C
310  1    146.3116688845957        111.09277477725543       0.0                     # C
311  1    148.7707589189942        111.09277477725543       0.0                     # C
312  1    151.22970698179557       111.09277477725543       0.0                     # C
313  1    153.6887970161941        111.09277477725543       0.0                     # C
314  1    156.14774507899546       111.09277477725543       0.0                     # C
315  1    158.60683511339397       111.09277477725543       0.0                     # C
316  1    161.0657831761953        111.09277477725543       0.0                     # C
317  1    163.52487321059382       111.09277477725543       0.0                     # C
318  1    165.9838212733952        111.09277477725543       0.0                     # C
319  1    168.4429113077937        111.09277477725543       0.0                     # C
320  1    170.90185937059508       111.09277477725543       0.0                     # C
321  1    173.3609494049936        111.09277477725543       0.0                     # C
322  1    175.81989746779496       111.09277477725543       0.0                     # C
323  1    178.27898750219347       111.09277477725543       0.0                     # C
324  1    180.73793556499484       111.09277477725543       0.0                     # C
325  1    183.19702559939336       111.09277477725543       0.0                     # C
326  1    185.65597366219473       111.09277477725543       0.0                     # C
327  1    188.11506369659324       111.09277477725543       0.0                     # C
328  1    190.5740117593946        111.09277477725543       0.0                     # C
329  1    193.03310179379312       111.09277477725543       0.0                     # C
330  1    195.4920498565945        111.09277477725543       0.0                     # C
331  1    197.951139890993         111.09277477725543       0.0                     # C
332  1    200.41008795379437       111.09277477725543       0.0                     # C
333  1    202.8691779881929        111.09277477725543       0.0                     # C
334  1    205.32812605099423       111.09277477725543       0.0                     # C
335  1    207.78721608539274       111.09277477725543       0.0                     # C
336  1    210.2461641481941        111.09277477725543       0.0                     # C
337  1    212.7052541825926        111.09277477725543       0.0                     # C
338  1    215.16420224539397       111.09277477725543       0.0                     # C