DATA FILE Produced from netmc results (cf David Morley)
19992 atoms
29988 bonds
59976 angles
0 dihedrals
0 impropers
1 atom types
1 bond types
1 angle types
0 dihedral types
0 improper types
0.00000 173.1704365190054 xlo xhi
0.00000 149.96999699939985 ylo yhi

# Pair Coeffs
#
# 1  Si

# Bond Coeffs
# 
# 1  Si-Si

# Angle Coeffs
# 
# 1  Si-Si-Si

 Masses

1 28.085500 # Si

 Atoms # molecular

1    1    1    87.45110453027803        76.23474847469492        0.0                     # Si
2    2    1    89.1827580956311         76.23474847469492        0.0                     # Si
3    3    1    90.91451164098217        76.23474847469492        0.0                     # Si
4    4    1    92.64616520633524        76.23474847469492        0.0                     # Si
5    5    1    94.37791875168632        76.23474847469492        0.0                     # Si
6    6    1    96.1095723170394         76.23474847469492        0.0                     # Si
7    7    1    97.84132586239046        76.23474847469492        0.0                     # Si
8    8    1    99.57297942774353        76.23474847469492        0.0                     # Si
9    9    1    101.3047329730946        76.23474847469492        0.0                     # Si
10   10   1    103.03638653844767       76.23474847469492        0.0                     # Si
11   11   1    104.76814008379874       76.23474847469492        0.0                     # Si
12   12   1    106.49979364915181       76.23474847469492        0.0                     # Si
13   13   1    108.23154719450288       76.23474847469492        0.0                     # Si
14   14   1    109.96320075985595       76.23474847469492        0.0                     # Si
15   15   1    111.69495430520702       76.23474847469492        0.0                     # Si
16   16   1    113.42660787056009       76.23474847469492        0.0                     # Si
17   17   1    115.15836141591116       76.23474847469492        0.0                     # Si
18   18   1    116.89001498126423       76.23474847469492        0.0                     # Si
19   19   1    118.6217685266153        76.23474847469492        0.0                     # Si
20   20   1    120.35342209196837       76.23474847469492        0.0                     # Si
21   21   1    122.08517563731944       76.23474847469492        0.0                     # Si
22   22   1    123.81682920267251       76.23474847469492        0.0                     # Si
23   23   1    125.54858274802358       76.23474847469492        0.0                     # Si
24   24   1    127.28023631337665       76.23474847469492        0.0                     # Si
25   25   1    129.01198985872773       76.23474847469492        0.0                     # Si
26   26   1    130.7436434240808        76.23474847469492        0.0                     # Si
27   27   1    132.47539696943187       76.23474847469492        0.0                     # Si
28   28   1    134.20705053478494       76.23474847469492        0.0                     # Si
29   29   1    135.938804080136         76.23474847469492        0.0                     # Si
30   30   1    137.67045764548908       76.23474847469492        0.0                     # Si
31   31   1    139.40221119084015       76.23474847469492        0.0                     # Si
32   32   1    141.13386475619322       76.23474847469492        0.0                     # Si
33   33   1    142.8656183015443        76.23474847469492        0.0                     # Si
34   34   1    144.59727186689736       76.23474847469492        0.0                     # Si
35   35   1    146.32902541224843       76.23474847469492        0.0                     # Si
36   36   1    148.0606789776015        76.23474847469492        0.0                     # Si
37   37   1    149.79243252295254       76.23474847469492        0.0                     # Si
38   38   1    151.5240860883056        76.23474847469492        0.0                     # Si
39   39   1    153.2558396336567        76.23474847469492        0.0                     # Si
40   40   1    154.98749319900975       76.23474847469492        0.0                     # Si
41   41   1    156.71924674436085       76.23474847469492        0.0                     # Si
42   42   1    158.45090030971392       76.23474847469492        0.0                     # Si
43   43   1    160.18265385506498       76.23474847469492        0.0                     # Si
44   44   1    161.91440740041605       76.23474847469492        0.0                     # Si
45   45   1    163.64606096576912       76.23474847469492        0.0                     # Si
46   46   1    165.3778145111202        76.23474847469492        0.0                     # Si
47   47   1    167.10946807647326       76.23474847469492        0.0                     # Si
48   48   1    168.84122162182433       76.23474847469492        0.0                     # Si
49   49   1    170.5728751871774        76.23474847469492        0.0                     # Si
50   50   1    172.30462873252847       76.23474847469492        0.0                     # Si
51   51   1    0.8658267826765351       76.23474847469492        0.0                     # Si
52   52   1    2.5975803280276053       76.23474847469492        0.0                     # Si
53   53   1    4.3292338933806755       76.23474847469492        0.0                     # Si
54   54   1    6.060987438731745        76.23474847469492        0.0                     # Si
55   55   1    7.792641004084816        76.23474847469492        0.0                     # Si
56   56   1    9.524394549435886        76.23474847469492        0.0                     # Si
57   57   1    11.256048114788955       76.23474847469492        0.0                     # Si
58   58   1    12.987801660140025       76.23474847469492        0.0                     # Si
59   59   1    14.719455225493096       76.23474847469492        0.0                     # Si
60   60   1    16.451208770844165       76.23474847469492        0.0                     # Si
61   61   1    18.182862336197235       76.23474847469492        0.0                     # Si
62   62   1    19.914615881548308       76.23474847469492        0.0                     # Si
63   63   1    21.64626944690138        76.23474847469492        0.0                     # Si
64   64   1    23.378022992252447       76.23474847469492        0.0                     # Si
65   65   1    25.109676557605514       76.23474847469492        0.0                     # Si
66   66   1    26.841430102956586       76.23474847469492        0.0                     # Si
67   67   1    28.573083668309657       76.23474847469492        0.0                     # Si
68   68   1    30.304837213660726       76.23474847469492        0.0                     # Si
69   69   1    32.036490779013796       76.23474847469492        0.0                     # Si
70   70   1    33.768244324364865       76.23474847469492        0.0                     # Si
71   71   1    35.499897889717936       76.23474847469492        0.0                     # Si
72   72   1    37.231651435069004       76.23474847469492        0.0                     # Si
73   73   1    38.963305000422075       76.23474847469492        0.0                     # Si
74   74   1    40.69505854577315        76.23474847469492        0.0                     # Si
75   75   1    42.42671211112622        76.23474847469492        0.0                     # Si
76   76   1    44.15846565647728        76.23474847469492        0.0                     # Si
77   77   1    45.89011922183035        76.23474847469492        0.0                     # Si
78   78   1    47.62187276718143        76.23474847469492        0.0                     # Si
79   79   1    49.35352633253449        76.23474847469492        0.0                     # Si
80   80   1    51.08527987788557        76.23474847469492        0.0                     # Si
81   81   1    52.81703342323664        76.23474847469492        0.0                     # Si
82   82   1    54.54868698858971        76.23474847469492        0.0                     # Si
83   83   1    56.28044053394078        76.23474847469492        0.0                     # Si
84   84   1    58.01209409929385        76.23474847469492        0.0                     # Si
85   85   1    59.743847644644916       76.23474847469492        0.0                     # Si
86   86   1    61.47550120999799        76.23474847469492        0.0                     # Si
87   87   1    63.20725475534906        76.23474847469492        0.0                     # Si
88   88   1    64.93890832070213        76.23474847469492        0.0                     # Si
89   89   1    66.6706618660532         76.23474847469492        0.0                     # Si
90   90   1    68.40231543140627        76.23474847469492        0.0                     # Si
91   91   1    70.13406897675733        76.23474847469492        0.0                     # Si
92   92   1    71.8657225421104         76.23474847469492        0.0                     # Si
93   93   1    73.59747608746147        76.23474847469492        0.0                     # Si
94   94   1    75.32912965281454        76.23474847469492        0.0                     # Si
95   95   1    77.06088319816563        76.23474847469492        0.0                     # Si
96   96   1    78.7925367635187         76.23474847469492        0.0                     # Si
97   97   1    80.52429030886977        76.23474847469492        0.0                     # Si
98   98   1    82.25594387422284        76.23474847469492        0.0                     # Si
99   99   1    83.98769741957389        76.23474847469492        0.0                     # Si
100  100  1    85.71935098492698        76.23474847469492        0.0                     # Si
101  101  1    86.58517776760351        76.73464846469292        0.0                     # Si
102  102  1    88.31693131295457        76.73464846469292        0.0                     # Si
103  103  1    90.04858487830764        76.73464846469292        0.0                     # Si
104  104  1    91.7803384236587         76.73464846469292        0.0                     # Si
105  105  1    93.51199198901178        76.73464846469292        0.0                     # Si
106  106  1    95.24374553436286        76.73464846469292        0.0                     # Si
107  107  1    96.97539909971593        76.73464846469292        0.0                     # Si
108  108  1    98.707152645067          76.73464846469292        0.0                     # Si
109  109  1    100.43880621042007       76.73464846469292        0.0                     # Si
110  110  1    102.17055975577114       76.73464846469292        0.0                     # Si
111  111  1    103.90221332112421       76.73464846469292        0.0                     # Si
112  112  1    105.63396686647528       76.73464846469292        0.0                     # Si
113  113  1    107.36572041182635       76.73464846469292        0.0                     # Si
114  114  1    109.09737397717942       76.73464846469292        0.0                     # Si
115  115  1    110.82912752253048       76.73464846469292        0.0                     # Si
116  116  1    112.56078108788356       76.73464846469292        0.0                     # Si
117  117  1    114.29253463323462       76.73464846469292        0.0                     # Si
118  118  1    116.0241881985877        76.73464846469292        0.0                     # Si
119  119  1    117.75594174393876       76.73464846469292        0.0                     # Si
120  120  1    119.48759530929183       76.73464846469292        0.0                     # Si
121  121  1    121.2193488546429        76.73464846469292        0.0                     # Si
122  122  1    122.95100241999597       76.73464846469292        0.0                     # Si
123  123  1    124.68275596534704       76.73464846469292        0.0                     # Si
124  124  1    126.41440953070011       76.73464846469292        0.0                     # Si
125  125  1    128.14616307605118       76.73464846469292        0.0                     # Si
126  126  1    129.87781664140425       76.73464846469292        0.0                     # Si
127  127  1    131.60957018675532       76.73464846469292        0.0                     # Si
128  128  1    133.3412237521084        76.73464846469292        0.0                     # Si
129  129  1    135.07297729745946       76.73464846469292        0.0                     # Si
130  130  1    136.80463086281253       76.73464846469292        0.0                     # Si
131  131  1    138.5363844081636        76.73464846469292        0.0                     # Si
132  132  1    140.26803797351667       76.73464846469292        0.0                     # Si
133  133  1    141.99979151886774       76.73464846469292        0.0                     # Si
134  134  1    143.7314450842208        76.73464846469292        0.0                     # Si
135  135  1    145.46319862957188       76.73464846469292        0.0                     # Si
136  136  1    147.19485219492495       76.73464846469292        0.0                     # Si
137  137  1    148.92660574027602       76.73464846469292        0.0                     # Si
138  138  1    150.6582593056291        76.73464846469292        0.0                     # Si
139  139  1    152.39001285098018       76.73464846469292        0.0                     # Si
140  140  1    154.12166641633323       76.73464846469292        0.0                     # Si
141  141  1    155.85341996168432       76.73464846469292        0.0                     # Si
142  142  1    157.5850735270374        76.73464846469292        0.0                     # Si
143  143  1    159.31682707238846       76.73464846469292        0.0                     # Si
144  144  1    161.04848063774153       76.73464846469292        0.0                     # Si
145  145  1    162.7802341830926        76.73464846469292        0.0                     # Si
146  146  1    164.51188774844567       76.73464846469292        0.0                     # Si
147  147  1    166.24364129379674       76.73464846469292        0.0                     # Si
148  148  1    167.9752948591498        76.73464846469292        0.0                     # Si
149  149  1    169.70704840450088       76.73464846469292        0.0                     # Si
150  150  1    171.43870196985395       76.73464846469292        0.0                     # Si
151  151  1    173.170455515205         76.73464846469292        0.0                     # Si
152  152  1    1.73175354535107         76.73464846469292        0.0                     # Si
153  153  1    3.46340711070414         76.73464846469292        0.0                     # Si
154  154  1    5.195160656055211        76.73464846469292        0.0                     # Si
155  155  1    6.92681422140828         76.73464846469292        0.0                     # Si
156  156  1    8.658567766759349        76.73464846469292        0.0                     # Si
157  157  1    10.390221332112421       76.73464846469292        0.0                     # Si
158  158  1    12.12197487746349        76.73464846469292        0.0                     # Si
159  159  1    13.85362844281656        76.73464846469292        0.0                     # Si
160  160  1    15.585381988167631       76.73464846469292        0.0                     # Si
161  161  1    17.3170355535207         76.73464846469292        0.0                     # Si
162  162  1    19.048789098871772       76.73464846469292        0.0                     # Si
163  163  1    20.780442664224843       76.73464846469292        0.0                     # Si
164  164  1    22.51219620957591        76.73464846469292        0.0                     # Si
165  165  1    24.243849774928982       76.73464846469292        0.0                     # Si
166  166  1    25.97560332028005        76.73464846469292        0.0                     # Si
167  167  1    27.70725688563312        76.73464846469292        0.0                     # Si
168  168  1    29.43901043098419        76.73464846469292        0.0                     # Si
169  169  1    31.17066399633726        76.73464846469292        0.0                     # Si
170  170  1    32.90241754168833        76.73464846469292        0.0                     # Si
171  171  1    34.6340711070414         76.73464846469292        0.0                     # Si
172  172  1    36.365824652392476       76.73464846469292        0.0                     # Si
173  173  1    38.09747821774554        76.73464846469292        0.0                     # Si
174  174  1    39.829231763096615       76.73464846469292        0.0                     # Si
175  175  1    41.560885328449686       76.73464846469292        0.0                     # Si
176  176  1    43.29263887380075        76.73464846469292        0.0                     # Si
177  177  1    45.02429243915382        76.73464846469292        0.0                     # Si
178  178  1    46.756045984504894       76.73464846469292        0.0                     # Si
179  179  1    48.487699549857965       76.73464846469292        0.0                     # Si
180  180  1    50.21945309520903        76.73464846469292        0.0                     # Si
181  181  1    51.951106660562104       76.73464846469292        0.0                     # Si
182  182  1    53.68286020591317        76.73464846469292        0.0                     # Si
183  183  1    55.41451377126624        76.73464846469292        0.0                     # Si
184  184  1    57.14626731661731        76.73464846469292        0.0                     # Si
185  185  1    58.87792088197038        76.73464846469292        0.0                     # Si
186  186  1    60.60967442732145        76.73464846469292        0.0                     # Si
187  187  1    62.34132799267452        76.73464846469292        0.0                     # Si
188  188  1    64.07308153802559        76.73464846469292        0.0                     # Si
189  189  1    65.80473510337866        76.73464846469292        0.0                     # Si
190  190  1    67.53648864872973        76.73464846469292        0.0                     # Si
191  191  1    69.2681422140828         76.73464846469292        0.0                     # Si
192  192  1    70.99989575943387        76.73464846469292        0.0                     # Si
193  193  1    72.73154932478694        76.73464846469292        0.0                     # Si
194  194  1    74.46330287013801        76.73464846469292        0.0                     # Si
195  195  1    76.19495643549108        76.73464846469292        0.0                     # Si
196  196  1    77.92670998084216        76.73464846469292        0.0                     # Si
197  197  1    79.65836354619523        76.73464846469292        0.0                     # Si
198  198  1    81.3901170915463         76.73464846469292        0.0                     # Si
199  199  1    83.12177065689937        76.73464846469292        0.0                     # Si
200  200  1    84.85352420225044        76.73464846469292        0.0                     # Si
201  201  1    88.31693131295457        77.73444844468892        0.0                     # Si
202  202  1    90.04858487830764        77.73444844468892        0.0                     # Si
203  203  1    91.7803384236587         77.73444844468892        0.0                     # Si
204  204  1    93.51199198901178        77.73444844468892        0.0                     # Si
205  205  1    95.24374553436286        77.73444844468892        0.0                     # Si
206  206  1    96.97539909971593        77.73444844468892        0.0                     # Si
207  207  1    98.707152645067          77.73444844468892        0.0                     # Si
208  208  1    100.43880621042007       77.73444844468892        0.0                     # Si
209  209  1    102.17055975577114       77.73444844468892        0.0                     # Si
210  210  1    103.90221332112421       77.73444844468892        0.0                     # Si
211  211  1    105.63396686647528       77.73444844468892        0.0                     # Si
212  212  1    107.36572041182635       77.73444844468892        0.0                     # Si
213  213  1    109.09737397717942       77.73444844468892        0.0                     # Si
214  214  1    110.82912752253048       77.73444844468892        0.0                     # Si
215  215  1    112.56078108788356       77.73444844468892        0.0                     # Si
216  216  1    114.29253463323462       77.73444844468892        0.0                     # Si
217  217  1    116.0241881985877        77.73444844468892        0.0                     # Si
218  218  1    117.75594174393876       77.73444844468892        0.0                     # Si
219  219  1    119.48759530929183       77.73444844468892        0.0                     # Si
220  220  1    121.2193488546429        77.73444844468892        0.0                     # Si
221  221  1    122.95100241999597       77.73444844468892        0.0                     # Si
222  222  1    124.68275596534704       77.73444844468892        0.0                     # Si
223  223  1    126.41440953070011       77.73444844468892        0.0                     # Si
224  224  1    128.14616307605118       77.73444844468892        0.0                     # Si
225  225  1    129.87781664140425       77.73444844468892        0.0                     # Si
226  226  1    131.60957018675532       77.73444844468892        0.0                     # Si
227  227  1    133.3412237521084        77.73444844468892        0.0                     # Si
228  228  1    135.07297729745946       77.73444844468892        0.0                     # Si
229  229  1    136.80463086281253       77.73444844468892        0.0                     # Si
230  230  1    138.5363844081636        77.73444844468892        0.0                     # Si
231  231  1    140.26803797351667       77.73444844468892        0.0                     # Si
232  232  1    141.99979151886774       77.73444844468892        0.0                     # Si
233  233  1    143.7314450842208        77.73444844468892        0.0                     # Si
234  234  1    145.46319862957188       77.73444844468892        0.0                     # Si
235  235  1    147.19485219492495       77.73444844468892        0.0                     # Si
236  236  1    148.92660574027602       77.73444844468892        0.0                     # Si
237  237  1    150.6582593056291        77.73444844468892        0.0                     # Si
238  238  1    152.39001285098018       77.73444844468892        0.0                     # Si
239  239  1    154.12166641633323       77.73444844468892        0.0                     # Si
240  240  1    155.85341996168432       77.73444844468892        0.0                     # Si
241  241  1    157.5850735270374        77.73444844468892        0.0                     # Si
242  242  1    159.31682707238846       77.73444844468892        0.0                     # Si
243  243  1    161.04848063774153       77.73444844468892        0.0                     # Si
244  244  1    162.7802341830926        77.73444844468892        0.0                     # Si
245  245  1    164.51188774844567       77.73444844468892        0.0                     # Si
246  246  1    166.24364129379674       77.73444844468892        0.0                     # Si
247  247  1    167.9752948591498        77.73444844468892        0.0                     # Si
248  248  1    169.70704840450088       77.73444844468892        0.0                     # Si
249  249  1    171.43870196985395       77.73444844468892        0.0                     # Si
250  250  1    173.170455515205         77.73444844468892        0.0                     # Si
251  251  1    1.73175354535107         77.73444844468892        0.0                     # Si
252  252  1    3.46340711070414         77.73444844468892        0.0                     # Si
253  253  1    5.195160656055211        77.73444844468892        0.0                     # Si
254  254  1    6.92681422140828         77.73444844468892        0.0                     # Si
255  255  1    8.658567766759349        77.73444844468892        0.0                     # Si
256  256  1    10.390221332112421       77.73444844468892        0.0                     # Si
257  257  1    12.12197487746349        77.73444844468892        0.0                     # Si
258  258  1    13.85362844281656        77.73444844468892        0.0                     # Si
259  259  1    15.585381988167631       77.73444844468892        0.0                     # Si
260  260  1    17.3170355535207         77.73444844468892        0.0                     # Si
261  261  1    19.048789098871772       77.73444844468892        0.0                     # Si
262  262  1    20.780442664224843       77.73444844468892        0.0                     # Si
263  263  1    22.51219620957591        77.73444844468892        0.0                     # Si
264  264  1    24.243849774928982       77.73444844468892        0.0                     # Si
265  265  1    25.97560332028005        77.73444844468892        0.0                     # Si
266  266  1    27.70725688563312        77.73444844468892        0.0                     # Si
267  267  1    29.43901043098419        77.73444844468892        0.0                     # Si
268  268  1    31.17066399633726        77.73444844468892        0.0                     # Si
269  269  1    32.90241754168833        77.73444844468892        0.0                     # Si
270  270  1    34.6340711070414         77.73444844468892        0.0                     # Si
271  271  1    36.365824652392476       77.73444844468892        0.0                     # Si
272  272  1    38.09747821774554        77.73444844468892        0.0                     # Si
273  273  1    39.829231763096615       77.73444844468892        0.0                     # Si
274  274  1    41.560885328449686       77.73444844468892        0.0                     # Si
275  275  1    43.29263887380075        77.73444844468892        0.0                     # Si
276  276  1    45.02429243915382        77.73444844468892        0.0                     # Si
277  277  1    46.756045984504894       77.73444844468892        0.0                     # Si
278  278  1    48.487699549857965       77.73444844468892        0.0                     # Si
279  279  1    50.21945309520903        77.73444844468892        0.0                     # Si
280  280  1    51.951106660562104       77.73444844468892        0.0                     # Si
281  281  1    53.68286020591317        77.73444844468892        0.0                     # Si
282  282  1    55.41451377126624        77.73444844468892        0.0                     # Si
283  283  1    57.14626731661731        77.73444844468892        0.0                     # Si
284  284  1    58.87792088197038        77.73444844468892        0.0                     # Si
285  285  1    60.60967442732145        77.73444844468892        0.0                     # Si
286  286  1    62.34132799267452        77.73444844468892        0.0                     # Si
287  287  1    64.07308153802559        77.73444844468892        0.0                     # Si
288  288  1    65.80473510337866        77.73444844468892        0.0                     # Si
289  289  1    67.53648864872973        77.73444844468892        0.0                     # Si
290  290  1    69.2681422140828         77.73444844468892        0.0                     # Si
291  291  1    70.99989575943387        77.73444844468892        0.0                     # Si
292  292  1    72.73154932478694        77.73444844468892        0.0                     # Si
293  293  1    74.46330287013801        77.73444844468892        0.0                     # Si
294  294  1    76.19495643549108        77.73444844468892        0.0                     # Si
295  295  1    77.92670998084216        77.73444844468892        0.0                     # Si
296  296  1    79.65836354619523        77.73444844468892        0.0                     # Si
297  297  1    81.3901170915463         77.73444844468892        0.0                     # Si
298  298  1    83.12177065689937        77.73444844468892        0.0                     # Si
299  299  1    84.85352420225044        77.73444844468892        0.0                     # Si
300  300  1    86.58517776760351        77.73444844468892        0.0                     # Si
301  301  1    87.45110453027803        78.23434843468692        0.0                     # Si
302  302  1    89.1827580956311         78.23434843468692        0.0                     # Si
303  303  1    90.91451164098217        78.23434843468692        0.0                     # Si
304  304  1    92.64616520633524        78.23434843468692        0.0                     # Si
305  305  1    94.37791875168632        78.23434843468692        0.0                     # Si
306  306  1    96.1095723170394         78.23434843468692        0.0                     # Si
307  307  1    97.84132586239046        78.23434843468692        0.0                     # Si
308  308  1    99.57297942774353        78.23434843468692        0.0                     # Si
309  309  1    101.3047329730946        78.23434843468692        0.0                     # Si
310  310  1    103.03638653844767       78.23434843468692        0.0                     # Si
311  311  1    104.76814008379874       78.23434843468692        0.0                     # Si
312  312  1    106.49979364915181       78.23434843468692        0.0                     # Si
313  313  1    108.23154719450288       78.23434843468692        0.0                     # Si
314  314  1    109.96320075985595       78.23434843468692        0.0                     # Si