DATA FILE Produced from netmc results (cf David Morley)
270 atoms
405 bonds
810 angles
0 dihedrals
0 impropers
1 atom types
1 bond types
1 angle types
0 dihedral types
0 improper types
0.00000 21.01378386 xlo xhi
0.00000 18.20375475 ylo yhi

# Pair Coeffs
#
# 1  Si

# Bond Coeffs
# 
# 1  Si-Si

# Angle Coeffs
# 
# 1  Si-Si-Si

 Masses

1 32.01000 # Si

 Atoms # molecular

1    1    1    14.88473113              10.36602701              0.0                     # Si
2    2    1    16.63592949              10.36602701              0.0                     # Si
3    3    1    18.38702675              10.36602701              0.0                     # Si
4    4    1    20.13822512              10.36602701              0.0                     # Si
5    5    1    0.87554863               10.36602701              0.0                     # Si
6    6    1    2.62674699               10.36602701              0.0                     # Si
7    7    1    4.37784425               10.36602701              0.0                     # Si
8    8    1    6.12904262               10.36602701              0.0                     # Si
9    9    1    7.88013988               10.36602701              0.0                     # Si
10   10   1    10.50688687              10.87168686              0.0                     # Si
11   11   1    12.25808524              10.87168686              0.0                     # Si
12   12   1    14.0091825               10.87168686              0.0                     # Si
13   13   1    15.76038086              10.87168686              0.0                     # Si
14   14   1    17.51147812              10.87168686              0.0                     # Si
15   15   1    19.26267648              10.87168686              0.0                     # Si
16   16   1    21.01377375              10.87168686              0.0                     # Si
17   17   1    1.75119836               10.87168686              0.0                     # Si
18   18   1    3.50229562               10.87168686              0.0                     # Si
19   19   1    5.25349399               10.87168686              0.0                     # Si
20   20   1    7.00459125               10.87168686              0.0                     # Si
21   21   1    8.75578961               10.87168686              0.0                     # Si
22   22   1    12.25808524              11.88300657              0.0                     # Si
23   23   1    14.0091825               11.88300657              0.0                     # Si
24   24   1    15.76038086              11.88300657              0.0                     # Si
25   25   1    17.51147812              11.88300657              0.0                     # Si
26   26   1    19.26267648              11.88300657              0.0                     # Si
27   27   1    21.01377375              11.88300657              0.0                     # Si
28   28   1    1.75119836               11.88300657              0.0                     # Si
29   29   1    3.50229562               11.88300657              0.0                     # Si
30   30   1    5.25349399               11.88300657              0.0                     # Si
31   31   1    7.00459125               11.88300657              0.0                     # Si
32   32   1    8.75578961               11.88300657              0.0                     # Si
33   33   1    10.50688687              11.88300657              0.0                     # Si
34   34   1    11.3824355               12.38866643              0.0                     # Si
35   35   1    13.13363387              12.38866643              0.0                     # Si
36   36   1    14.88473113              12.38866643              0.0                     # Si
37   37   1    16.63592949              12.38866643              0.0                     # Si
38   38   1    18.38702675              12.38866643              0.0                     # Si
39   39   1    20.13822512              12.38866643              0.0                     # Si
40   40   1    0.87554863               12.38866643              0.0                     # Si
41   41   1    2.62674699               12.38866643              0.0                     # Si
42   42   1    4.37784425               12.38866643              0.0                     # Si
43   43   1    6.12904262               12.38866643              0.0                     # Si
44   44   1    7.88013988               12.38866643              0.0                     # Si
45   45   1    9.63133824               12.38866643              0.0                     # Si
46   46   1    11.3824355               13.39998613              0.0                     # Si
47   47   1    13.13363387              13.39998613              0.0                     # Si
48   48   1    14.88473113              13.39998613              0.0                     # Si
49   49   1    16.63592949              13.39998613              0.0                     # Si
50   50   1    18.38702675              13.39998613              0.0                     # Si
51   51   1    20.13822512              13.39998613              0.0                     # Si
52   52   1    0.87554863               13.39998613              0.0                     # Si
53   53   1    2.62674699               13.39998613              0.0                     # Si
54   54   1    4.37784425               13.39998613              0.0                     # Si
55   55   1    6.12904262               13.39998613              0.0                     # Si
56   56   1    7.88013988               13.39998613              0.0                     # Si
57   57   1    9.63133824               13.39998613              0.0                     # Si
58   58   1    10.50688687              13.90564599              0.0                     # Si
59   59   1    12.25808524              13.90564599              0.0                     # Si
60   60   1    14.0091825               13.90564599              0.0                     # Si
61   61   1    15.76038086              13.90564599              0.0                     # Si
62   62   1    17.51147812              13.90564599              0.0                     # Si
63   63   1    19.26267648              13.90564599              0.0                     # Si
64   64   1    21.01377375              13.90564599              0.0                     # Si
65   65   1    1.75119836               13.90564599              0.0                     # Si
66   66   1    3.50229562               13.90564599              0.0                     # Si
67   67   1    5.25349399               13.90564599              0.0                     # Si
68   68   1    7.00459125               13.90564599              0.0                     # Si
69   69   1    8.75578961               13.90564599              0.0                     # Si
70   70   1    12.25808524              14.9169657               0.0                     # Si
71   71   1    14.0091825               14.9169657               0.0                     # Si
72   72   1    15.76038086              14.9169657               0.0                     # Si
73   73   1    17.51147812              14.9169657               0.0                     # Si
74   74   1    19.26267648              14.9169657               0.0                     # Si
75   75   1    21.01377375              14.9169657               0.0                     # Si
76   76   1    1.75119836               14.9169657               0.0                     # Si
77   77   1    3.50229562               14.9169657               0.0                     # Si
78   78   1    5.25349399               14.9169657               0.0                     # Si
79   79   1    7.00459125               14.9169657               0.0                     # Si
80   80   1    8.75578961               14.9169657               0.0                     # Si
81   81   1    10.50688687              14.9169657               0.0                     # Si
82   82   1    11.3824355               15.42262555              0.0                     # Si
83   83   1    13.13363387              15.42262555              0.0                     # Si
84   84   1    14.88473113              15.42262555              0.0                     # Si
85   85   1    16.63592949              15.42262555              0.0                     # Si
86   86   1    18.38702675              15.42262555              0.0                     # Si
87   87   1    20.13822512              15.42262555              0.0                     # Si
88   88   1    0.87554863               15.42262555              0.0                     # Si
89   89   1    2.62674699               15.42262555              0.0                     # Si
90   90   1    4.37784425               15.42262555              0.0                     # Si
91   91   1    6.12904262               15.42262555              0.0                     # Si
92   92   1    7.88013988               15.42262555              0.0                     # Si
93   93   1    9.63133824               15.42262555              0.0                     # Si
94   94   1    11.3824355               16.43394526              0.0                     # Si
95   95   1    13.13363387              16.43394526              0.0                     # Si
96   96   1    14.88473113              16.43394526              0.0                     # Si
97   97   1    16.63592949              16.43394526              0.0                     # Si
98   98   1    18.38702675              16.43394526              0.0                     # Si
99   99   1    20.13822512              16.43394526              0.0                     # Si
100  100  1    0.87554863               16.43394526              0.0                     # Si
101  101  1    2.62674699               16.43394526              0.0                     # Si
102  102  1    4.37784425               16.43394526              0.0                     # Si
103  103  1    6.12904262               16.43394526              0.0                     # Si
104  104  1    7.88013988               16.43394526              0.0                     # Si
105  105  1    9.63133824               16.43394526              0.0                     # Si
106  106  1    10.50688687              16.93960511              0.0                     # Si
107  107  1    12.25808524              16.93960511              0.0                     # Si
108  108  1    14.0091825               16.93960511              0.0                     # Si
109  109  1    15.76038086              16.93960511              0.0                     # Si
110  110  1    17.51147812              16.93960511              0.0                     # Si
111  111  1    19.26267648              16.93960511              0.0                     # Si
112  112  1    21.01377375              16.93960511              0.0                     # Si
113  113  1    1.75119836               16.93960511              0.0                     # Si
114  114  1    3.50229562               16.93960511              0.0                     # Si
115  115  1    5.25349399               16.93960511              0.0                     # Si
116  116  1    7.00459125               16.93960511              0.0                     # Si
117  117  1    8.75578961               16.93960511              0.0                     # Si
118  118  1    12.25808524              17.95092482              0.0                     # Si
119  119  1    14.0091825               17.95092482              0.0                     # Si
120  120  1    15.76038086              17.95092482              0.0                     # Si
121  121  1    17.51147812              17.95092482              0.0                     # Si
122  122  1    19.26267648              17.95092482              0.0                     # Si
123  123  1    21.01377375              17.95092482              0.0                     # Si
124  124  1    1.75119836               17.95092482              0.0                     # Si
125  125  1    3.50229562               17.95092482              0.0                     # Si
126  126  1    5.25349399               17.95092482              0.0                     # Si
127  127  1    7.00459125               17.95092482              0.0                     # Si
128  128  1    8.75578961               17.95092482              0.0                     # Si
129  129  1    10.50688687              17.95092482              0.0                     # Si
130  130  1    11.3824355               0.25282993               0.0                     # Si
131  131  1    13.13363387              0.25282993               0.0                     # Si
132  132  1    14.88473113              0.25282993               0.0                     # Si
133  133  1    16.63592949              0.25282993               0.0                     # Si
134  134  1    18.38702675              0.25282993               0.0                     # Si
135  135  1    20.13822512              0.25282993               0.0                     # Si
136  136  1    0.87554863               0.25282993               0.0                     # Si
137  137  1    2.62674699               0.25282993               0.0                     # Si
138  138  1    4.37784425               0.25282993               0.0                     # Si
139  139  1    6.12904262               0.25282993               0.0                     # Si
140  140  1    7.88013988               0.25282993               0.0                     # Si
141  141  1    9.63133824               0.25282993               0.0                     # Si
142  142  1    11.3824355               1.26414964               0.0                     # Si
143  143  1    13.13363387              1.26414964               0.0                     # Si
144  144  1    14.88473113              1.26414964               0.0                     # Si
145  145  1    16.63592949              1.26414964               0.0                     # Si
146  146  1    18.38702675              1.26414964               0.0                     # Si
147  147  1    20.13822512              1.26414964               0.0                     # Si
148  148  1    0.87554863               1.26414964               0.0                     # Si
149  149  1    2.62674699               1.26414964               0.0                     # Si
150  150  1    4.37784425               1.26414964               0.0                     # Si
151  151  1    6.12904262               1.26414964               0.0                     # Si
152  152  1    7.88013988               1.26414964               0.0                     # Si
153  153  1    9.63133824               1.26414964               0.0                     # Si
154  154  1    10.50688687              1.76980949               0.0                     # Si
155  155  1    12.25808524              1.76980949               0.0                     # Si
156  156  1    14.0091825               1.76980949               0.0                     # Si
157  157  1    15.76038086              1.76980949               0.0                     # Si
158  158  1    17.51147812              1.76980949               0.0                     # Si
159  159  1    19.26267648              1.76980949               0.0                     # Si
160  160  1    21.01377375              1.76980949               0.0                     # Si
161  161  1    1.75119836               1.76980949               0.0                     # Si
162  162  1    3.50229562               1.76980949               0.0                     # Si
163  163  1    5.25349399               1.76980949               0.0                     # Si
164  164  1    7.00459125               1.76980949               0.0                     # Si
165  165  1    8.75578961               1.76980949               0.0                     # Si
166  166  1    12.25808524              2.7811292                0.0                     # Si
167  167  1    14.0091825               2.7811292                0.0                     # Si
168  168  1    15.76038086              2.7811292                0.0                     # Si
169  169  1    17.51147812              2.7811292                0.0                     # Si
170  170  1    19.26267648              2.7811292                0.0                     # Si
171  171  1    21.01377375              2.7811292                0.0                     # Si
172  172  1    1.75119836               2.7811292                0.0                     # Si
173  173  1    3.50229562               2.7811292                0.0                     # Si
174  174  1    5.25349399               2.7811292                0.0                     # Si
175  175  1    7.00459125               2.7811292                0.0                     # Si
176  176  1    8.75578961               2.7811292                0.0                     # Si
177  177  1    10.50688687              2.7811292                0.0                     # Si
178  178  1    11.3824355               3.28678905               0.0                     # Si
179  179  1    13.13363387              3.28678905               0.0                     # Si
180  180  1    14.88473113              3.28678905               0.0                     # Si
181  181  1    16.63592949              3.28678905               0.0                     # Si
182  182  1    18.38702675              3.28678905               0.0                     # Si
183  183  1    20.13822512              3.28678905               0.0                     # Si
184  184  1    0.87554863               3.28678905               0.0                     # Si
185  185  1    2.62674699               3.28678905               0.0                     # Si
186  186  1    4.37784425               3.28678905               0.0                     # Si
187  187  1    6.12904262               3.28678905               0.0                     # Si
188  188  1    7.88013988               3.28678905               0.0                     # Si
189  189  1    9.63133824               3.28678905               0.0                     # Si
190  190  1    11.3824355               4.29810876               0.0                     # Si
191  191  1    13.13363387              4.29810876               0.0                     # Si
192  192  1    14.88473113              4.29810876               0.0                     # Si
193  193  1    16.63592949              4.29810876               0.0                     # Si
194  194  1    18.38702675              4.29810876               0.0                     # Si
195  195  1    20.13822512              4.29810876               0.0                     # Si
196  196  1    0.87554863               4.29810876               0.0                     # Si
197  197  1    2.62674699               4.29810876               0.0                     # Si
198  198  1    4.37784425               4.29810876               0.0                     # Si
199  199  1    6.12904262               4.29810876               0.0                     # Si
200  200  1    7.88013988               4.29810876               0.0                     # Si
201  201  1    9.63133824               4.29810876               0.0                     # Si
202  202  1    10.50688687              4.80376861               0.0                     # Si
203  203  1    12.25808524              4.80376861               0.0                     # Si
204  204  1    14.0091825               4.80376861               0.0                     # Si
205  205  1    15.76038086              4.80376861               0.0                     # Si
206  206  1    17.51147812              4.80376861               0.0                     # Si
207  207  1    19.26267648              4.80376861               0.0                     # Si
208  208  1    21.01377375              4.80376861               0.0                     # Si
209  209  1    1.75119836               4.80376861               0.0                     # Si
210  210  1    3.50229562               4.80376861               0.0                     # Si
211  211  1    5.25349399               4.80376861               0.0                     # Si
212  212  1    7.00459125               4.80376861               0.0                     # Si
213  213  1    8.75578961               4.80376861               0.0                     # Si
214  214  1    14.0091825               5.81508832               0.0                     # Si
215  215  1    15.76038086              5.81508832               0.0                     # Si
216  216  1    17.51147812              5.81508832               0.0                     # Si
217  217  1    19.26267648              5.81508832               0.0                     # Si
218  218  1    21.01377375              5.81508832               0.0                     # Si
219  219  1    1.75119836               5.81508832               0.0                     # Si
220  220  1    3.50229562               5.81508832               0.0                     # Si
221  221  1    5.25349399               5.81508832               0.0                     # Si
222  222  1    7.00459125               5.81508832               0.0                     # Si
223  223  1    8.75578961               5.81508832               0.0                     # Si
224  224  1    13.13363387              6.32074818               0.0                     # Si
225  225  1    14.88473113              6.32074818               0.0                     # Si
226  226  1    16.63592949              6.32074818               0.0                     # Si
227  227  1    18.38702675              6.32074818               0.0                     # Si
228  228  1    20.13822512              6.32074818               0.0                     # Si
229  229  1    0.87554863               6.32074818               0.0                     # Si
230  230  1    2.62674699               6.32074818               0.0                     # Si
231  231  1    4.37784425               6.32074818               0.0                     # Si
232  232  1    6.12904262               6.32074818               0.0                     # Si
233  233  1    7.88013988               6.32074818               0.0                     # Si
234  234  1    9.63133824               6.32074818               0.0                     # Si
235  235  1    14.88473113              7.33206788               0.0                     # Si
236  236  1    16.63592949              7.33206788               0.0                     # Si
237  237  1    18.38702675              7.33206788               0.0                     # Si
238  238  1    20.13822512              7.33206788               0.0                     # Si
239  239  1    0.87554863               7.33206788               0.0                     # Si
240  240  1    2.62674699               7.33206788               0.0                     # Si
241  241  1    4.37784425               7.33206788               0.0                     # Si
242  242  1    6.12904262               7.33206788               0.0                     # Si
243  243  1    7.88013988               7.33206788               0.0                     # Si
244  244  1    14.0091825               7.83772774               0.0                     # Si
245  245  1    15.76038086              7.83772774               0.0                     # Si
246  246  1    17.51147812              7.83772774               0.0                     # Si
247  247  1    19.26267648              7.83772774               0.0                     # Si
248  248  1    21.01377375              7.83772774               0.0                     # Si
249  249  1    1.75119836               7.83772774               0.0                     # Si
250  250  1    3.50229562               7.83772774               0.0                     # Si
251  251  1    5.25349399               7.83772774               0.0                     # Si
252  252  1    7.00459125               7.83772774               0.0                     # Si
253  253  1    8.75578961               7.83772774               0.0                     # Si
254  254  1    15.76038086              8.84904745               0.0                     # Si
255  255  1    17.51147812              8.84904745               0.0                     # Si
256  256  1    19.26267648              8.84904745               0.0                     # Si
257  257  1    21.01377375              8.84904745               0.0                     # Si
258  258  1    1.75119836               8.84904745               0.0                     # Si
259  259  1    3.50229562               8.84904745               0.0                     # Si
260  260  1    5.25349399               8.84904745               0.0                     # Si
261  261  1    7.00459125               8.84904745               0.0                     # Si
262  262  1    14.88473113              9.3547073                0.0                     # Si
263  263  1    16.63592949              9.3547073                0.0                     # Si
264  264  1    18.38702675              9.3547073                0.0                     # Si
265  265  1    20.13822512              9.3547073                0.0                     # Si
266  266  1    0.87554863               9.3547073                0.0                     # Si
267  267  1    2.62674699               9.3547073                0.0                     # Si
268  268  1    4.37784425               9.3547073                0.0                     # Si
269  269  1    6.12904262               9.3547073                0.0                     # Si
270  270  1    7.88013988               9.3547073                0.0                     # Si

 Bonds

1 1 1 12
2 1 1 13
3 1 1 262
4 1 2 13
5 1 2 14
6 1 2 263
7 1 3 14
8 1 3 15
9 1 3 264
10 1 4 15
11 1 4 16
12 1 4 265
13 1 5 16
14 1 5 17
15 1 5 266
16 1 6 17
17 1 6 18
18 1 6 267
19 1 7 18
20 1 7 19
21 1 7 268
22 1 8 19
23 1 8 20
24 1 8 269
25 1 9 20
26 1 9 21
27 1 9 270
28 1 10 33
29 1 10 21
30 1 10 11
31 1 11 22
32 1 11 12
33 1 12 23
34 1 13 24
35 1 14 25
36 1 15 26
37 1 16 27
38 1 17 28
39 1 18 29
40 1 19 30
41 1 20 31
42 1 21 32
43 1 22 34
44 1 22 35
45 1 23 35
46 1 23 36
47 1 24 36
48 1 24 37
49 1 25 37
50 1 25 38
51 1 26 38
52 1 26 39
53 1 27 39
54 1 27 40
55 1 28 40
56 1 28 41
57 1 29 41
58 1 29 42
59 1 30 42
60 1 30 43
61 1 31 43
62 1 31 44
63 1 32 44
64 1 32 45
65 1 33 45
66 1 33 34
67 1 34 46
68 1 35 47
69 1 36 48
70 1 37 49
71 1 38 50
72 1 39 51
73 1 40 52
74 1 41 53
75 1 42 54
76 1 43 55
77 1 44 56
78 1 45 57
79 1 46 58
80 1 46 59
81 1 47 59
82 1 47 60
83 1 48 60
84 1 48 61
85 1 49 61
86 1 49 62
87 1 50 62
88 1 50 63
89 1 51 63
90 1 51 64
91 1 52 64
92 1 52 65
93 1 53 65
94 1 53 66
95 1 54 66
96 1 54 67
97 1 55 67
98 1 55 68
99 1 56 68
100 1 56 69
101 1 57 69
102 1 57 58
103 1 58 81
104 1 59 70
105 1 60 71
106 1 61 72
107 1 62 73
108 1 63 74
109 1 64 75
110 1 65 76
111 1 66 77
112 1 67 78
113 1 68 79
114 1 69 80
115 1 70 82
116 1 70 83
117 1 71 83
118 1 71 84
119 1 72 84
120 1 72 85
121 1 73 85
122 1 73 86
123 1 74 86
124 1 74 87
125 1 75 87
126 1 75 88
127 1 76 88
128 1 76 89
129 1 77 89
130 1 77 90
131 1 78 90
132 1 78 91
133 1 79 91
134 1 79 92
135 1 80 92
136 1 80 93
137 1 81 93
138 1 81 82
139 1 82 94
140 1 83 95
141 1 84 96
142 1 85 97
143 1 86 98
144 1 87 99
145 1 88 100
146 1 89 101
147 1 90 102
148 1 91 103
149 1 92 104
150 1 93 105
151 1 94 106
152 1 94 107
153 1 95 107
154 1 95 108
155 1 96 108
156 1 96 109
157 1 97 109
158 1 97 110
159 1 98 110
160 1 98 111
161 1 99 111
162 1 99 112
163 1 100 112
164 1 100 113
165 1 101 113
166 1 101 114
167 1 102 114
168 1 102 115
169 1 103 115
170 1 103 116
171 1 104 116
172 1 104 117
173 1 105 117
174 1 105 106
175 1 106 129
176 1 107 118
177 1 108 119
178 1 109 120
179 1 110 121
180 1 111 122
181 1 112 123
182 1 113 124
183 1 114 125
184 1 115 126
185 1 116 127
186 1 117 128
187 1 118 130
188 1 118 131
189 1 119 131
190 1 119 132
191 1 120 132
192 1 120 133
193 1 121 133
194 1 121 134
195 1 122 134
196 1 122 135
197 1 123 135
198 1 123 136
199 1 124 136
200 1 124 137
201 1 125 137
202 1 125 138
203 1 126 138
204 1 126 139
205 1 127 139
206 1 127 140
207 1 128 140
208 1 128 141
209 1 129 141
210 1 129 130
211 1 130 142
212 1 131 143
213 1 132 144
214 1 133 145
215 1 134 146
216 1 135 147
217 1 136 148
218 1 137 149
219 1 138 150
220 1 139 151
221 1 140 152
222 1 141 153
223 1 142 154
224 1 142 155
225 1 143 155
226 1 143 156
227 1 144 156
228 1 144 157
229 1 145 157
230 1 145 158
231 1 146 158
232 1 146 159
233 1 147 159
234 1 147 160
235 1 148 160
236 1 148 161
237 1 149 161
238 1 149 162
239 1 150 162
240 1 150 163
241 1 151 163
242 1 151 164
243 1 152 164
244 1 152 165
245 1 153 165
246 1 153 154
247 1 154 177
248 1 155 166
249 1 156 167
250 1 157 168
251 1 158 169
252 1 159 170
253 1 160 171
254 1 161 172
255 1 162 173
256 1 163 174
257 1 164 175
258 1 165 176
259 1 166 178
260 1 166 179
261 1 167 179
262 1 167 180
263 1 168 180
264 1 168 181
265 1 169 181
266 1 169 182
267 1 170 182
268 1 170 183
269 1 171 183
270 1 171 184
271 1 172 184
272 1 172 185
273 1 173 185
274 1 173 186
275 1 174 186
276 1 174 187
277 1 175 187
278 1 175 188
279 1 176 188
280 1 176 189
281 1 177 189
282 1 177 178
283 1 178 190
284 1 179 191
285 1 180 192
286 1 181 193
287 1 182 194
288 1 183 195
289 1 184 196
290 1 185 197
291 1 186 198
292 1 187 199
293 1 188 200
294 1 189 201
295 1 190 202
296 1 190 203
297 1 191 203
298 1 191 204
299 1 192 204
300 1 192 205
301 1 193 205
302 1 193 206
303 1 194 206
304 1 194 207
305 1 195 207
306 1 195 208
307 1 196 208
308 1 196 209
309 1 197 209
310 1 197 210
311 1 198 210
312 1 198 211
313 1 199 211
314 1 199 212
315 1 200 212
316 1 200 213
317 1 201 213
318 1 201 202
319 1 202 234
320 1 203 224
321 1 204 214
322 1 205 215
323 1 206 216
324 1 207 217
325 1 208 218
326 1 209 219
327 1 210 220
328 1 211 221
329 1 212 222
330 1 213 223
331 1 214 224
332 1 214 225
333 1 215 225