DATA FILE Produced from netmc results (cf David Morley)
1620 atoms
5400 bonds
0 angles
0 dihedrals
0 impropers
2 atom types
0 bond types
2 bond types
0 angle types
0 dihedral types
0 improper types
0.00000 120.47943065439136 xlo xhi
0.00000 104.36854317450721 ylo yhi
0.0000 200.0000 zlo zhi

# Pair Coeffs
#
# 1  O
# 2  Si

# Bond Coeffs
# 
# 1  O-O
# 2  Si-O
# 3  O-O rep
# 4  Si-Si rep

 Masses

1 28.10000 # O 
2 32.01000 # Si

 Atoms # molecular

1    1    1    85.33941073790484        59.432087083094366       8.040569334518267        # O
2    2    1    95.37964826872447        59.432087083094366       8.040569334518267        # O
3    3    1    105.41930615760431       59.432087083094366       8.040569334518267        # O
4    4    1    115.45954374575747       59.432087083094366       8.040569334518267        # O
5    5    1    5.019828944439918        59.432087083094366       8.040569334518267        # O
6    6    1    15.060066475259552       59.432087083094366       8.040569334518267        # O
7    7    1    25.099724364139384       59.432087083094366       8.040569334518267        # O
8    8    1    35.139961952292545       59.432087083094366       8.040569334518267        # O
9    9    1    45.179619841172375       59.432087083094366       8.040569334518267        # O
10   10   1    60.239686316431936       62.33121325849727        8.040569334518267        # O
11   11   1    70.27992390458509        62.33121325849727        8.040569334518267        # O
12   12   1    80.31958179346492        62.33121325849727        8.040569334518267        # O
13   13   1    90.35981932428456        62.33121325849727        8.040569334518267        # O
14   14   1    100.39947721316439       62.33121325849727        8.040569334518267        # O
15   15   1    110.43971474398403       62.33121325849727        8.040569334518267        # O
16   16   1    120.47937269019738       62.33121325849727        8.040569334518267        # O
17   17   1    10.040237530819635       62.33121325849727        8.040569334518267        # O
18   18   1    20.07989541969947        62.33121325849727        8.040569334518267        # O
19   19   1    30.12013300785263        62.33121325849727        8.040569334518267        # O
20   20   1    40.15979089673246        62.33121325849727        8.040569334518267        # O
21   21   1    50.200028427552105       62.33121325849727        8.040569334518267        # O
22   22   1    70.27992390458509        68.12946566663658        8.040569334518267        # O
23   23   1    80.31958179346492        68.12946566663658        8.040569334518267        # O
24   24   1    90.35981932428456        68.12946566663658        8.040569334518267        # O
25   25   1    100.39947721316439       68.12946566663658        8.040569334518267        # O
26   26   1    110.43971474398403       68.12946566663658        8.040569334518267        # O
27   27   1    120.47937269019738       68.12946566663658        8.040569334518267        # O
28   28   1    10.040237530819635       68.12946566663658        8.040569334518267        # O
29   29   1    20.07989541969947        68.12946566663658        8.040569334518267        # O
30   30   1    30.12013300785263        68.12946566663658        8.040569334518267        # O
31   31   1    40.15979089673246        68.12946566663658        8.040569334518267        # O
32   32   1    50.200028427552105       68.12946566663658        8.040569334518267        # O
33   33   1    60.239686316431936       68.12946566663658        8.040569334518267        # O
34   34   1    65.25951526087185        71.02859189937301        8.040569334518267        # O
35   35   1    75.29975284902501        71.02859189937301        8.040569334518267        # O
36   36   1    85.33941073790484        71.02859189937301        8.040569334518267        # O
37   37   1    95.37964826872447        71.02859189937301        8.040569334518267        # O
38   38   1    105.41930615760431       71.02859189937301        8.040569334518267        # O
39   39   1    115.45954374575747       71.02859189937301        8.040569334518267        # O
40   40   1    5.019828944439918        71.02859189937301        8.040569334518267        # O
41   41   1    15.060066475259552       71.02859189937301        8.040569334518267        # O
42   42   1    25.099724364139384       71.02859189937301        8.040569334518267        # O
43   43   1    35.139961952292545       71.02859189937301        8.040569334518267        # O
44   44   1    45.179619841172375       71.02859189937301        8.040569334518267        # O
45   45   1    55.21985737199201        71.02859189937301        8.040569334518267        # O
46   46   1    65.25951526087185        76.82684425017881        8.040569334518267        # O
47   47   1    75.29975284902501        76.82684425017881        8.040569334518267        # O
48   48   1    85.33941073790484        76.82684425017881        8.040569334518267        # O
49   49   1    95.37964826872447        76.82684425017881        8.040569334518267        # O
50   50   1    105.41930615760431       76.82684425017881        8.040569334518267        # O
51   51   1    115.45954374575747       76.82684425017881        8.040569334518267        # O
52   52   1    5.019828944439918        76.82684425017881        8.040569334518267        # O
53   53   1    15.060066475259552       76.82684425017881        8.040569334518267        # O
54   54   1    25.099724364139384       76.82684425017881        8.040569334518267        # O
55   55   1    35.139961952292545       76.82684425017881        8.040569334518267        # O
56   56   1    45.179619841172375       76.82684425017881        8.040569334518267        # O
57   57   1    55.21985737199201        76.82684425017881        8.040569334518267        # O
58   58   1    60.239686316431936       79.72597048291523        8.040569334518267        # O
59   59   1    70.27992390458509        79.72597048291523        8.040569334518267        # O
60   60   1    80.31958179346492        79.72597048291523        8.040569334518267        # O
61   61   1    90.35981932428456        79.72597048291523        8.040569334518267        # O
62   62   1    100.39947721316439       79.72597048291523        8.040569334518267        # O
63   63   1    110.43971474398403       79.72597048291523        8.040569334518267        # O
64   64   1    120.47937269019738       79.72597048291523        8.040569334518267        # O
65   65   1    10.040237530819635       79.72597048291523        8.040569334518267        # O
66   66   1    20.07989541969947        79.72597048291523        8.040569334518267        # O
67   67   1    30.12013300785263        79.72597048291523        8.040569334518267        # O
68   68   1    40.15979089673246        79.72597048291523        8.040569334518267        # O
69   69   1    50.200028427552105       79.72597048291523        8.040569334518267        # O
70   70   1    70.27992390458509        85.52422289105455        8.040569334518267        # O
71   71   1    80.31958179346492        85.52422289105455        8.040569334518267        # O
72   72   1    90.35981932428456        85.52422289105455        8.040569334518267        # O
73   73   1    100.39947721316439       85.52422289105455        8.040569334518267        # O
74   74   1    110.43971474398403       85.52422289105455        8.040569334518267        # O
75   75   1    120.47937269019738       85.52422289105455        8.040569334518267        # O
76   76   1    10.040237530819635       85.52422289105455        8.040569334518267        # O
77   77   1    20.07989541969947        85.52422289105455        8.040569334518267        # O
78   78   1    30.12013300785263        85.52422289105455        8.040569334518267        # O
79   79   1    40.15979089673246        85.52422289105455        8.040569334518267        # O
80   80   1    50.200028427552105       85.52422289105455        8.040569334518267        # O
81   81   1    60.239686316431936       85.52422289105455        8.040569334518267        # O
82   82   1    65.25951526087185        88.42334906645745        8.040569334518267        # O
83   83   1    75.29975284902501        88.42334906645745        8.040569334518267        # O
84   84   1    85.33941073790484        88.42334906645745        8.040569334518267        # O
85   85   1    95.37964826872447        88.42334906645745        8.040569334518267        # O
86   86   1    105.41930615760431       88.42334906645745        8.040569334518267        # O
87   87   1    115.45954374575747       88.42334906645745        8.040569334518267        # O
88   88   1    5.019828944439918        88.42334906645745        8.040569334518267        # O
89   89   1    15.060066475259552       88.42334906645745        8.040569334518267        # O
90   90   1    25.099724364139384       88.42334906645745        8.040569334518267        # O
91   91   1    35.139961952292545       88.42334906645745        8.040569334518267        # O
92   92   1    45.179619841172375       88.42334906645745        8.040569334518267        # O
93   93   1    55.21985737199201        88.42334906645745        8.040569334518267        # O
94   94   1    65.25951526087185        94.22160147459678        8.040569334518267        # O
95   95   1    75.29975284902501        94.22160147459678        8.040569334518267        # O
96   96   1    85.33941073790484        94.22160147459678        8.040569334518267        # O
97   97   1    95.37964826872447        94.22160147459678        8.040569334518267        # O
98   98   1    105.41930615760431       94.22160147459678        8.040569334518267        # O
99   99   1    115.45954374575747       94.22160147459678        8.040569334518267        # O
100  100  1    5.019828944439918        94.22160147459678        8.040569334518267        # O
101  101  1    15.060066475259552       94.22160147459678        8.040569334518267        # O
102  102  1    25.099724364139384       94.22160147459678        8.040569334518267        # O
103  103  1    35.139961952292545       94.22160147459678        8.040569334518267        # O
104  104  1    45.179619841172375       94.22160147459678        8.040569334518267        # O
105  105  1    55.21985737199201        94.22160147459678        8.040569334518267        # O
106  106  1    60.239686316431936       97.12072764999965        8.040569334518267        # O
107  107  1    70.27992390458509        97.12072764999965        8.040569334518267        # O
108  108  1    80.31958179346492        97.12072764999965        8.040569334518267        # O
109  109  1    90.35981932428456        97.12072764999965        8.040569334518267        # O
110  110  1    100.39947721316439       97.12072764999965        8.040569334518267        # O
111  111  1    110.43971474398403       97.12072764999965        8.040569334518267        # O
112  112  1    120.47937269019738       97.12072764999965        8.040569334518267        # O
113  113  1    10.040237530819635       97.12072764999965        8.040569334518267        # O
114  114  1    20.07989541969947        97.12072764999965        8.040569334518267        # O
115  115  1    30.12013300785263        97.12072764999965        8.040569334518267        # O
116  116  1    40.15979089673246        97.12072764999965        8.040569334518267        # O
117  117  1    50.200028427552105       97.12072764999965        8.040569334518267        # O
118  118  1    70.27992390458509        102.91898005813898       8.040569334518267        # O
119  119  1    80.31958179346492        102.91898005813898       8.040569334518267        # O
120  120  1    90.35981932428456        102.91898005813898       8.040569334518267        # O
121  121  1    100.39947721316439       102.91898005813898       8.040569334518267        # O
122  122  1    110.43971474398403       102.91898005813898       8.040569334518267        # O
123  123  1    120.47937269019738       102.91898005813898       8.040569334518267        # O
124  124  1    10.040237530819635       102.91898005813898       8.040569334518267        # O
125  125  1    20.07989541969947        102.91898005813898       8.040569334518267        # O
126  126  1    30.12013300785263        102.91898005813898       8.040569334518267        # O
127  127  1    40.15979089673246        102.91898005813898       8.040569334518267        # O
128  128  1    50.200028427552105       102.91898005813898       8.040569334518267        # O
129  129  1    60.239686316431936       102.91898005813898       8.040569334518267        # O
130  130  1    65.25951526087185        1.4495631163682114       8.040569334518267        # O
131  131  1    75.29975284902501        1.4495631163682114       8.040569334518267        # O
132  132  1    85.33941073790484        1.4495631163682114       8.040569334518267        # O
133  133  1    95.37964826872447        1.4495631163682114       8.040569334518267        # O
134  134  1    105.41930615760431       1.4495631163682114       8.040569334518267        # O
135  135  1    115.45954374575747       1.4495631163682114       8.040569334518267        # O
136  136  1    5.019828944439918        1.4495631163682114       8.040569334518267        # O
137  137  1    15.060066475259552       1.4495631163682114       8.040569334518267        # O
138  138  1    25.099724364139384       1.4495631163682114       8.040569334518267        # O
139  139  1    35.139961952292545       1.4495631163682114       8.040569334518267        # O
140  140  1    45.179619841172375       1.4495631163682114       8.040569334518267        # O
141  141  1    55.21985737199201        1.4495631163682114       8.040569334518267        # O
142  142  1    65.25951526087185        7.247815524507533        8.040569334518267        # O
143  143  1    75.29975284902501        7.247815524507533        8.040569334518267        # O
144  144  1    85.33941073790484        7.247815524507533        8.040569334518267        # O
145  145  1    95.37964826872447        7.247815524507533        8.040569334518267        # O
146  146  1    105.41930615760431       7.247815524507533        8.040569334518267        # O
147  147  1    115.45954374575747       7.247815524507533        8.040569334518267        # O
148  148  1    5.019828944439918        7.247815524507533        8.040569334518267        # O
149  149  1    15.060066475259552       7.247815524507533        8.040569334518267        # O
150  150  1    25.099724364139384       7.247815524507533        8.040569334518267        # O
151  151  1    35.139961952292545       7.247815524507533        8.040569334518267        # O
152  152  1    45.179619841172375       7.247815524507533        8.040569334518267        # O
153  153  1    55.21985737199201        7.247815524507533        8.040569334518267        # O
154  154  1    60.239686316431936       10.14694169991043        8.040569334518267        # O
155  155  1    70.27992390458509        10.14694169991043        8.040569334518267        # O
156  156  1    80.31958179346492        10.14694169991043        8.040569334518267        # O
157  157  1    90.35981932428456        10.14694169991043        8.040569334518267        # O
158  158  1    100.39947721316439       10.14694169991043        8.040569334518267        # O
159  159  1    110.43971474398403       10.14694169991043        8.040569334518267        # O
160  160  1    120.47937269019738       10.14694169991043        8.040569334518267        # O
161  161  1    10.040237530819635       10.14694169991043        8.040569334518267        # O
162  162  1    20.07989541969947        10.14694169991043        8.040569334518267        # O
163  163  1    30.12013300785263        10.14694169991043        8.040569334518267        # O
164  164  1    40.15979089673246        10.14694169991043        8.040569334518267        # O
165  165  1    50.200028427552105       10.14694169991043        8.040569334518267        # O
166  166  1    70.27992390458509        15.945194108049751       8.040569334518267        # O
167  167  1    80.31958179346492        15.945194108049751       8.040569334518267        # O
168  168  1    90.35981932428456        15.945194108049751       8.040569334518267        # O
169  169  1    100.39947721316439       15.945194108049751       8.040569334518267        # O
170  170  1    110.43971474398403       15.945194108049751       8.040569334518267        # O
171  171  1    120.47937269019738       15.945194108049751       8.040569334518267        # O
172  172  1    10.040237530819635       15.945194108049751       8.040569334518267        # O
173  173  1    20.07989541969947        15.945194108049751       8.040569334518267        # O
174  174  1    30.12013300785263        15.945194108049751       8.040569334518267        # O
175  175  1    40.15979089673246        15.945194108049751       8.040569334518267        # O
176  176  1    50.200028427552105       15.945194108049751       8.040569334518267        # O
177  177  1    60.239686316431936       15.945194108049751       8.040569334518267        # O
178  178  1    65.25951526087185        18.844320283452646       8.040569334518267        # O
179  179  1    75.29975284902501        18.844320283452646       8.040569334518267        # O
180  180  1    85.33941073790484        18.844320283452646       8.040569334518267        # O
181  181  1    95.37964826872447        18.844320283452646       8.040569334518267        # O
182  182  1    105.41930615760431       18.844320283452646       8.040569334518267        # O
183  183  1    115.45954374575747       18.844320283452646       8.040569334518267        # O
184  184  1    5.019828944439918        18.844320283452646       8.040569334518267        # O
185  185  1    15.060066475259552       18.844320283452646       8.040569334518267        # O
186  186  1    25.099724364139384       18.844320283452646       8.040569334518267        # O
187  187  1    35.139961952292545       18.844320283452646       8.040569334518267        # O
188  188  1    45.179619841172375       18.844320283452646       8.040569334518267        # O
189  189  1    55.21985737199201        18.844320283452646       8.040569334518267        # O
190  190  1    65.25951526087185        24.64257269159197        8.040569334518267        # O
191  191  1    75.29975284902501        24.64257269159197        8.040569334518267        # O
192  192  1    85.33941073790484        24.64257269159197        8.040569334518267        # O
193  193  1    95.37964826872447        24.64257269159197        8.040569334518267        # O
194  194  1    105.41930615760431       24.64257269159197        8.040569334518267        # O
195  195  1    115.45954374575747       24.64257269159197        8.040569334518267        # O
196  196  1    5.019828944439918        24.64257269159197        8.040569334518267        # O
197  197  1    15.060066475259552       24.64257269159197        8.040569334518267        # O
198  198  1    25.099724364139384       24.64257269159197        8.040569334518267        # O
199  199  1    35.139961952292545       24.64257269159197        8.040569334518267        # O
200  200  1    45.179619841172375       24.64257269159197        8.040569334518267        # O
201  201  1    55.21985737199201        24.64257269159197        8.040569334518267        # O
202  202  1    60.239686316431936       27.541698866994864       8.040569334518267        # O
203  203  1    70.27992390458509        27.541698866994864       8.040569334518267        # O
204  204  1    80.31958179346492        27.541698866994864       8.040569334518267        # O
205  205  1    90.35981932428456        27.541698866994864       8.040569334518267        # O
206  206  1    100.39947721316439       27.541698866994864       8.040569334518267        # O
207  207  1    110.43971474398403       27.541698866994864       8.040569334518267        # O
208  208  1    120.47937269019738       27.541698866994864       8.040569334518267        # O
209  209  1    10.040237530819635       27.541698866994864       8.040569334518267        # O
210  210  1    20.07989541969947        27.541698866994864       8.040569334518267        # O
211  211  1    30.12013300785263        27.541698866994864       8.040569334518267        # O
212  212  1    40.15979089673246        27.541698866994864       8.040569334518267        # O
213  213  1    50.200028427552105       27.541698866994864       8.040569334518267        # O
214  214  1    80.31958179346492        33.33995127513419        8.040569334518267        # O
215  215  1    90.35981932428456        33.33995127513419        8.040569334518267        # O
216  216  1    100.39947721316439       33.33995127513419        8.040569334518267        # O
217  217  1    110.43971474398403       33.33995127513419        8.040569334518267        # O
218  218  1    120.47937269019738       33.33995127513419        8.040569334518267        # O
219  219  1    10.040237530819635       33.33995127513419        8.040569334518267        # O
220  220  1    20.07989541969947        33.33995127513419        8.040569334518267        # O
221  221  1    30.12013300785263        33.33995127513419        8.040569334518267        # O
222  222  1    40.15979089673246        33.33995127513419        8.040569334518267        # O
223  223  1    50.200028427552105       33.33995127513419        8.040569334518267        # O
224  224  1    75.29975284902501        36.23907750787061        8.040569334518267        # O
225  225  1    85.33941073790484        36.23907750787061        8.040569334518267        # O
226  226  1    95.37964826872447        36.23907750787061        8.040569334518267        # O
227  227  1    105.41930615760431       36.23907750787061        8.040569334518267        # O
228  228  1    115.45954374575747       36.23907750787061        8.040569334518267        # O
229  229  1    5.019828944439918        36.23907750787061        8.040569334518267        # O
230  230  1    15.060066475259552       36.23907750787061        8.040569334518267        # O
231  231  1    25.099724364139384       36.23907750787061        8.040569334518267        # O
232  232  1    35.139961952292545       36.23907750787061        8.040569334518267        # O
233  233  1    45.179619841172375       36.23907750787061        8.040569334518267        # O
234  234  1    55.21985737199201        36.23907750787061        8.040569334518267        # O
235  235  1    85.33941073790484        42.03732985867641        8.040569334518267        # O
236  236  1    95.37964826872447        42.03732985867641        8.040569334518267        # O
237  237  1    105.41930615760431       42.03732985867641        8.040569334518267        # O
238  238  1    115.45954374575747       42.03732985867641        8.040569334518267        # O
239  239  1    5.019828944439918        42.03732985867641        8.040569334518267        # O
240  240  1    15.060066475259552       42.03732985867641        8.040569334518267        # O
241  241  1    25.099724364139384       42.03732985867641        8.040569334518267        # O
242  242  1    35.139961952292545       42.03732985867641        8.040569334518267        # O
243  243  1    45.179619841172375       42.03732985867641        8.040569334518267        # O
244  244  1    80.31958179346492        44.93645609141283        8.040569334518267        # O
245  245  1    90.35981932428456        44.93645609141283        8.040569334518267        # O
246  246  1    100.39947721316439       44.93645609141283        8.040569334518267        # O
247  247  1    110.43971474398403       44.93645609141283        8.040569334518267        # O
248  248  1    120.47937269019738       44.93645609141283        8.040569334518267        # O
249  249  1    10.040237530819635       44.93645609141283        8.040569334518267        # O
250  250  1    20.07989541969947        44.93645609141283        8.040569334518267        # O
251  251  1    30.12013300785263        44.93645609141283        8.040569334518267        # O
252  252  1    40.15979089673246        44.93645609141283        8.040569334518267        # O
253  253  1    50.200028427552105       44.93645609141283        8.040569334518267        # O
254  254  1    90.35981932428456        50.73470849955215        8.040569334518267        # O
255  255  1    100.39947721316439       50.73470849955215        8.040569334518267        # O
256  256  1    110.43971474398403       50.73470849955215        8.040569334518267        # O
257  257  1    120.47937269019738       50.73470849955215        8.040569334518267        # O
258  258  1    10.040237530819635       50.73470849955215        8.040569334518267        # O
259  259  1    20.07989541969947        50.73470849955215        8.040569334518267        # O
260  260  1    30.12013300785263        50.73470849955215        8.040569334518267        # O
261  261  1    40.15979089673246        50.73470849955215        8.040569334518267        # O
262  262  1    85.33941073790484        53.63383467495505        8.040569334518267        # O
263  263  1    95.37964826872447        53.63383467495505        8.040569334518267        # O
264  264  1    105.41930615760431       53.63383467495505        8.040569334518267        # O
265  265  1    115.45954374575747       53.63383467495505        8.040569334518267        # O
266  266  1    5.019828944439918        53.63383467495505        8.040569334518267        # O
267  267  1    15.060066475259552       53.63383467495505        8.040569334518267        # O
268  268  1    25.099724364139384       53.63383467495505        8.040569334518267        # O
269  269  1    35.139961952292545       53.63383467495505        8.040569334518267        # O
270  270  1    45.179619841172375       53.63383467495505        8.040569334518267        # O
271  271  1    82.82949626568488        60.88165017079582        3.98503710016194         # O
272  272  1    82.82949626568488        60.88165017079582        12.096101568874595       # O
273  273  1    87.5996150310947         61.31466287268804        3.98503710016194         # O
274  274  1    87.5996150310947         61.31466287268804        12.096101568874595       # O
275  275  1    85.83941073790484        56.53296087902471        3.98503710016194         # O
276  276  1    85.83941073790484        56.53296087902471        12.096101568874595       # O
277  277  1    92.8697337965045         60.88165017079582        3.98503710016194         # O
278  278  1    92.8697337965045         60.88165017079582        12.096101568874595       # O
279  279  1    97.63956274094443        61.31466287268804        3.98503710016194         # O
280  280  1    97.63956274094443        61.31466287268804        12.096101568874595       # O
281  281  1    95.87964826872447        56.53296087902471        3.98503710016194         # O
282  282  1    95.87964826872447        56.53296087902471        12.096101568874595       # O
283  283  1    102.90939168538435       60.88165017079582        3.98503710016194         # O
284  284  1    102.90939168538435       60.88165017079582        12.096101568874595       # O
285  285  1    107.67951045079417       61.31466287268804        3.98503710016194         # O
286  286  1    107.67951045079417       61.31466287268804        12.096101568874595       # O
287  287  1    105.91930615760431       56.53296087902471        3.98503710016194         # O
288  288  1    105.91930615760431       56.53296087902471        12.096101568874595       # O
289  289  1    112.94962924487075       60.88165017079582        3.98503710016194         # O
290  290  1    112.94962924487075       60.88165017079582        12.096101568874595       # O
291  291  1    117.71945821797743       61.31466287268804        3.98503710016194         # O
292  292  1    117.71945821797743       61.31466287268804        12.096101568874595       # O
293  293  1    115.95954374575747       56.53296087902471        3.98503710016194         # O
294  294  1    115.95954374575747       56.53296087902471        12.096101568874595       # O
295  295  1    2.509885490122964        60.88165017079582        3.98503710016194         # O
296  296  1    2.509885490122964        60.88165017079582        12.096101568874595       # O
297  297  1    7.280033237629777        61.31466287268804        3.98503710016194         # O
298  298  1    7.280033237629777        61.31466287268804        12.096101568874595       # O
299  299  1    5.519828944439918        56.53296087902471        3.98503710016194         # O
300  300  1    5.519828944439918        56.53296087902471        12.096101568874595       # O
301  301  1    12.550152003039592       60.88165017079582        3.98503710016194         # O
302  302  1    12.550152003039592       60.88165017079582        12.096101568874595       # O
303  303  1    17.31998094747951        61.31466287268804        3.98503710016194         # O
304  304  1    17.31998094747951        61.31466287268804        12.096101568874595       # O
305  305  1    15.560066475259552       56.53296087902471        3.98503710016194         # O
306  306  1    15.560066475259552       56.53296087902471        12.096101568874595       # O
307  307  1    22.589809891919426       60.88165017079582        3.98503710016194         # O
308  308  1    22.589809891919426       60.88165017079582        12.096101568874595       # O
309  309  1    27.359928685996007       61.31466287268804        3.98503710016194         # O
310  310  1    27.359928685996007       61.31466287268804        12.096101568874595       # O
311  311  1    25.599724364139384       56.53296087902471        3.98503710016194         # O
312  312  1    25.599724364139384       56.53296087902471        12.096101568874595       # O
313  313  1    32.63004748007259        60.88165017079582        3.98503710016194         # O
314  314  1    32.63004748007259        60.88165017079582        12.096101568874595       # O