DATA FILE Produced from netmc results (cf David Morley)
478 atoms
1 atom types
0.00000 38.0231351709996 xlo xhi
0.00000 32.92900089586685 ylo yhi

 Masses

1 12.0000 # Si

 Atoms # molecular

1    1    24.9526364496951         18.17955257792649        0.0                     # C
2    1    27.3291498851839         18.17955257792649        0.0                     # C
3    1    29.705526116502284       18.17955257792649        0.0                     # C
4    1    32.08203955199108        18.17955257792649        0.0                     # C
5    1    34.45841578330946        18.17955257792649        0.0                     # C
6    1    36.834929218798266       18.17955257792649        0.0                     # C
7    1    1.1881881156591956       18.17955257792649        0.0                     # C
8    1    3.5647015511479863       18.17955257792649        0.0                     # C
9    1    5.941077782466378        18.17955257792649        0.0                     # C
10   1    8.317591217955169        18.17955257792649        0.0                     # C
11   1    10.69396744927356        18.17955257792649        0.0                     # C
12   1    13.07048088476235        18.17955257792649        0.0                     # C
13   1    15.446857116080741       18.17955257792649        0.0                     # C
14   1    26.1409617695247         18.865573429923717       0.0                     # C
15   1    28.517338000843093       18.865573429923717       0.0                     # C
16   1    30.893851436331882       18.865573429923717       0.0                     # C
17   1    33.270227667650275       18.865573429923717       0.0                     # C
18   1    35.64674110313906        18.865573429923717       0.0                     # C
19   1    38.02311733445745        18.865573429923717       0.0                     # C
20   1    2.376513435488791        18.865573429923717       0.0                     # C
21   1    4.752889666807182        18.865573429923717       0.0                     # C
22   1    7.1294031022959725       18.865573429923717       0.0                     # C
23   1    9.505779333614363        18.865573429923717       0.0                     # C
24   1    11.882292769103154       18.865573429923717       0.0                     # C
25   1    14.258669000421547       18.865573429923717       0.0                     # C
26   1    26.1409617695247         20.23761513391817        0.0                     # C
27   1    28.517338000843093       20.23761513391817        0.0                     # C
28   1    30.893851436331882       20.23761513391817        0.0                     # C
29   1    33.270227667650275       20.23761513391817        0.0                     # C
30   1    35.64674110313906        20.23761513391817        0.0                     # C
31   1    38.02311733445745        20.23761513391817        0.0                     # C
32   1    2.376513435488791        20.23761513391817        0.0                     # C
33   1    4.752889666807182        20.23761513391817        0.0                     # C
34   1    7.1294031022959725       20.23761513391817        0.0                     # C
35   1    9.505779333614363        20.23761513391817        0.0                     # C
36   1    11.882292769103154       20.23761513391817        0.0                     # C
37   1    14.258669000421547       20.23761513391817        0.0                     # C
38   1    24.9526364496951         20.923635985915396       0.0                     # C
39   1    27.3291498851839         20.923635985915396       0.0                     # C
40   1    29.705526116502284       20.923635985915396       0.0                     # C
41   1    32.08203955199108        20.923635985915396       0.0                     # C
42   1    34.45841578330946        20.923635985915396       0.0                     # C
43   1    36.834929218798266       20.923635985915396       0.0                     # C
44   1    1.1881881156591956       20.923635985915396       0.0                     # C
45   1    3.5647015511479863       20.923635985915396       0.0                     # C
46   1    5.941077782466378        20.923635985915396       0.0                     # C
47   1    8.317591217955169        20.923635985915396       0.0                     # C
48   1    10.69396744927356        20.923635985915396       0.0                     # C
49   1    13.07048088476235        20.923635985915396       0.0                     # C
50   1    15.446857116080741       20.923635985915396       0.0                     # C
51   1    24.9526364496951         22.295677689909848       0.0                     # C
52   1    27.3291498851839         22.295677689909848       0.0                     # C
53   1    29.705526116502284       22.295677689909848       0.0                     # C
54   1    32.08203955199108        22.295677689909848       0.0                     # C
55   1    34.45841578330946        22.295677689909848       0.0                     # C
56   1    36.834929218798266       22.295677689909848       0.0                     # C
57   1    1.1881881156591956       22.295677689909848       0.0                     # C
58   1    3.5647015511479863       22.295677689909848       0.0                     # C
59   1    5.941077782466378        22.295677689909848       0.0                     # C
60   1    8.317591217955169        22.295677689909848       0.0                     # C
61   1    10.69396744927356        22.295677689909848       0.0                     # C
62   1    13.07048088476235        22.295677689909848       0.0                     # C
63   1    15.446857116080741       22.295677689909848       0.0                     # C
64   1    19.011558667228726       22.981698541907075       0.0                     # C
65   1    21.38807210271752        22.981698541907075       0.0                     # C
66   1    23.764448334035908       22.981698541907075       0.0                     # C
67   1    26.1409617695247         22.981698541907075       0.0                     # C
68   1    28.517338000843093       22.981698541907075       0.0                     # C
69   1    30.893851436331882       22.981698541907075       0.0                     # C
70   1    33.270227667650275       22.981698541907075       0.0                     # C
71   1    35.64674110313906        22.981698541907075       0.0                     # C
72   1    38.02311733445745        22.981698541907075       0.0                     # C
73   1    2.376513435488791        22.981698541907075       0.0                     # C
74   1    4.752889666807182        22.981698541907075       0.0                     # C
75   1    7.1294031022959725       22.981698541907075       0.0                     # C
76   1    9.505779333614363        22.981698541907075       0.0                     # C
77   1    11.882292769103154       22.981698541907075       0.0                     # C
78   1    14.258669000421547       22.981698541907075       0.0                     # C
79   1    16.635182435910338       22.981698541907075       0.0                     # C
80   1    21.38807210271752        24.353740245901523       0.0                     # C
81   1    23.764448334035908       24.353740245901523       0.0                     # C
82   1    26.1409617695247         24.353740245901523       0.0                     # C
83   1    28.517338000843093       24.353740245901523       0.0                     # C
84   1    30.893851436331882       24.353740245901523       0.0                     # C
85   1    33.270227667650275       24.353740245901523       0.0                     # C
86   1    35.64674110313906        24.353740245901523       0.0                     # C
87   1    38.02311733445745        24.353740245901523       0.0                     # C
88   1    2.376513435488791        24.353740245901523       0.0                     # C
89   1    4.752889666807182        24.353740245901523       0.0                     # C
90   1    7.1294031022959725       24.353740245901523       0.0                     # C
91   1    9.505779333614363        24.353740245901523       0.0                     # C
92   1    11.882292769103154       24.353740245901523       0.0                     # C
93   1    14.258669000421547       24.353740245901523       0.0                     # C
94   1    16.635182435910338       24.353740245901523       0.0                     # C
95   1    19.011558667228726       24.353740245901523       0.0                     # C
96   1    20.199746782887924       25.039761097898754       0.0                     # C
97   1    22.576260218376714       25.039761097898754       0.0                     # C
98   1    24.9526364496951         25.039761097898754       0.0                     # C
99   1    27.3291498851839         25.039761097898754       0.0                     # C
100  1    29.705526116502284       25.039761097898754       0.0                     # C
101  1    32.08203955199108        25.039761097898754       0.0                     # C
102  1    34.45841578330946        25.039761097898754       0.0                     # C
103  1    36.834929218798266       25.039761097898754       0.0                     # C
104  1    1.1881881156591956       25.039761097898754       0.0                     # C
105  1    3.5647015511479863       25.039761097898754       0.0                     # C
106  1    5.941077782466378        25.039761097898754       0.0                     # C
107  1    8.317591217955169        25.039761097898754       0.0                     # C
108  1    10.69396744927356        25.039761097898754       0.0                     # C
109  1    13.07048088476235        25.039761097898754       0.0                     # C
110  1    15.446857116080741       25.039761097898754       0.0                     # C
111  1    17.82337055156953        25.039761097898754       0.0                     # C
112  1    20.199746782887924       26.411802801893202       0.0                     # C
113  1    22.576260218376714       26.411802801893202       0.0                     # C
114  1    24.9526364496951         26.411802801893202       0.0                     # C
115  1    27.3291498851839         26.411802801893202       0.0                     # C
116  1    29.705526116502284       26.411802801893202       0.0                     # C
117  1    32.08203955199108        26.411802801893202       0.0                     # C
118  1    34.45841578330946        26.411802801893202       0.0                     # C
119  1    36.834929218798266       26.411802801893202       0.0                     # C
120  1    1.1881881156591956       26.411802801893202       0.0                     # C
121  1    3.5647015511479863       26.411802801893202       0.0                     # C
122  1    5.941077782466378        26.411802801893202       0.0                     # C
123  1    8.317591217955169        26.411802801893202       0.0                     # C
124  1    10.69396744927356        26.411802801893202       0.0                     # C
125  1    13.07048088476235        26.411802801893202       0.0                     # C
126  1    15.446857116080741       26.411802801893202       0.0                     # C
127  1    17.82337055156953        26.411802801893202       0.0                     # C
128  1    19.011558667228726       27.097823653890433       0.0                     # C
129  1    21.38807210271752        27.097823653890433       0.0                     # C
130  1    23.764448334035908       27.097823653890433       0.0                     # C
131  1    26.1409617695247         27.097823653890433       0.0                     # C
132  1    28.517338000843093       27.097823653890433       0.0                     # C
133  1    30.893851436331882       27.097823653890433       0.0                     # C
134  1    33.270227667650275       27.097823653890433       0.0                     # C
135  1    35.64674110313906        27.097823653890433       0.0                     # C
136  1    38.02311733445745        27.097823653890433       0.0                     # C
137  1    2.376513435488791        27.097823653890433       0.0                     # C
138  1    4.752889666807182        27.097823653890433       0.0                     # C
139  1    7.1294031022959725       27.097823653890433       0.0                     # C
140  1    9.505779333614363        27.097823653890433       0.0                     # C
141  1    11.882292769103154       27.097823653890433       0.0                     # C
142  1    14.258669000421547       27.097823653890433       0.0                     # C
143  1    16.635182435910338       27.097823653890433       0.0                     # C
144  1    21.38807210271752        28.46986535788488        0.0                     # C
145  1    23.764448334035908       28.46986535788488        0.0                     # C
146  1    26.1409617695247         28.46986535788488        0.0                     # C
147  1    28.517338000843093       28.46986535788488        0.0                     # C
148  1    30.893851436331882       28.46986535788488        0.0                     # C
149  1    33.270227667650275       28.46986535788488        0.0                     # C
150  1    35.64674110313906        28.46986535788488        0.0                     # C
151  1    38.02311733445745        28.46986535788488        0.0                     # C
152  1    2.376513435488791        28.46986535788488        0.0                     # C
153  1    4.752889666807182        28.46986535788488        0.0                     # C
154  1    7.1294031022959725       28.46986535788488        0.0                     # C
155  1    9.505779333614363        28.46986535788488        0.0                     # C
156  1    11.882292769103154       28.46986535788488        0.0                     # C
157  1    14.258669000421547       28.46986535788488        0.0                     # C
158  1    16.635182435910338       28.46986535788488        0.0                     # C
159  1    19.011558667228726       28.46986535788488        0.0                     # C
160  1    20.199746782887924       29.155886209882112       0.0                     # C
161  1    22.576260218376714       29.155886209882112       0.0                     # C
162  1    24.9526364496951         29.155886209882112       0.0                     # C
163  1    27.3291498851839         29.155886209882112       0.0                     # C
164  1    29.705526116502284       29.155886209882112       0.0                     # C
165  1    32.08203955199108        29.155886209882112       0.0                     # C
166  1    34.45841578330946        29.155886209882112       0.0                     # C
167  1    36.834929218798266       29.155886209882112       0.0                     # C
168  1    1.1881881156591956       29.155886209882112       0.0                     # C
169  1    3.5647015511479863       29.155886209882112       0.0                     # C
170  1    5.941077782466378        29.155886209882112       0.0                     # C
171  1    8.317591217955169        29.155886209882112       0.0                     # C
172  1    10.69396744927356        29.155886209882112       0.0                     # C
173  1    13.07048088476235        29.155886209882112       0.0                     # C
174  1    15.446857116080741       29.155886209882112       0.0                     # C
175  1    17.82337055156953        29.155886209882112       0.0                     # C
176  1    20.199746782887924       30.52792791387656        0.0                     # C
177  1    22.576260218376714       30.52792791387656        0.0                     # C
178  1    24.9526364496951         30.52792791387656        0.0                     # C
179  1    27.3291498851839         30.52792791387656        0.0                     # C
180  1    29.705526116502284       30.52792791387656        0.0                     # C
181  1    32.08203955199108        30.52792791387656        0.0                     # C
182  1    34.45841578330946        30.52792791387656        0.0                     # C
183  1    36.834929218798266       30.52792791387656        0.0                     # C
184  1    1.1881881156591956       30.52792791387656        0.0                     # C
185  1    3.5647015511479863       30.52792791387656        0.0                     # C
186  1    5.941077782466378        30.52792791387656        0.0                     # C
187  1    8.317591217955169        30.52792791387656        0.0                     # C
188  1    10.69396744927356        30.52792791387656        0.0                     # C
189  1    13.07048088476235        30.52792791387656        0.0                     # C
190  1    15.446857116080741       30.52792791387656        0.0                     # C
191  1    17.82337055156953        30.52792791387656        0.0                     # C
192  1    19.011558667228726       31.213948765873784       0.0                     # C
193  1    21.38807210271752        31.213948765873784       0.0                     # C
194  1    23.764448334035908       31.213948765873784       0.0                     # C
195  1    26.1409617695247         31.213948765873784       0.0                     # C
196  1    28.517338000843093       31.213948765873784       0.0                     # C
197  1    30.893851436331882       31.213948765873784       0.0                     # C
198  1    33.270227667650275       31.213948765873784       0.0                     # C
199  1    35.64674110313906        31.213948765873784       0.0                     # C
200  1    38.02311733445745        31.213948765873784       0.0                     # C
201  1    2.376513435488791        31.213948765873784       0.0                     # C
202  1    4.752889666807182        31.213948765873784       0.0                     # C
203  1    7.1294031022959725       31.213948765873784       0.0                     # C
204  1    9.505779333614363        31.213948765873784       0.0                     # C
205  1    11.882292769103154       31.213948765873784       0.0                     # C
206  1    14.258669000421547       31.213948765873784       0.0                     # C
207  1    16.635182435910338       31.213948765873784       0.0                     # C
208  1    21.38807210271752        32.58599046986824        0.0                     # C
209  1    23.764448334035908       32.58599046986824        0.0                     # C
210  1    26.1409617695247         32.58599046986824        0.0                     # C
211  1    28.517338000843093       32.58599046986824        0.0                     # C
212  1    30.893851436331882       32.58599046986824        0.0                     # C
213  1    33.270227667650275       32.58599046986824        0.0                     # C
214  1    35.64674110313906        32.58599046986824        0.0                     # C
215  1    38.02311733445745        32.58599046986824        0.0                     # C
216  1    2.376513435488791        32.58599046986824        0.0                     # C
217  1    4.752889666807182        32.58599046986824        0.0                     # C
218  1    7.1294031022959725       32.58599046986824        0.0                     # C
219  1    9.505779333614363        32.58599046986824        0.0                     # C
220  1    11.882292769103154       32.58599046986824        0.0                     # C
221  1    14.258669000421547       32.58599046986824        0.0                     # C
222  1    16.635182435910338       32.58599046986824        0.0                     # C
223  1    19.011558667228726       32.58599046986824        0.0                     # C
224  1    20.199746782887924       0.34301042599861303      0.0                     # C
225  1    22.576260218376714       0.34301042599861303      0.0                     # C
226  1    24.9526364496951         0.34301042599861303      0.0                     # C
227  1    27.3291498851839         0.34301042599861303      0.0                     # C
228  1    29.705526116502284       0.34301042599861303      0.0                     # C
229  1    32.08203955199108        0.34301042599861303      0.0                     # C
230  1    34.45841578330946        0.34301042599861303      0.0                     # C
231  1    36.834929218798266       0.34301042599861303      0.0                     # C
232  1    1.1881881156591956       0.34301042599861303      0.0                     # C
233  1    3.5647015511479863       0.34301042599861303      0.0                     # C
234  1    5.941077782466378        0.34301042599861303      0.0                     # C
235  1    8.317591217955169        0.34301042599861303      0.0                     # C
236  1    10.69396744927356        0.34301042599861303      0.0                     # C
237  1    13.07048088476235        0.34301042599861303      0.0                     # C
238  1    15.446857116080741       0.34301042599861303      0.0                     # C
239  1    17.82337055156953        0.34301042599861303      0.0                     # C
240  1    20.199746782887924       1.7150521299930652       0.0                     # C
241  1    22.576260218376714       1.7150521299930652       0.0                     # C
242  1    24.9526364496951         1.7150521299930652       0.0                     # C
243  1    27.3291498851839         1.7150521299930652       0.0                     # C
244  1    29.705526116502284       1.7150521299930652       0.0                     # C
245  1    32.08203955199108        1.7150521299930652       0.0                     # C
246  1    34.45841578330946        1.7150521299930652       0.0                     # C
247  1    36.834929218798266       1.7150521299930652       0.0                     # C
248  1    1.1881881156591956       1.7150521299930652       0.0                     # C
249  1    3.5647015511479863       1.7150521299930652       0.0                     # C
250  1    5.941077782466378        1.7150521299930652       0.0                     # C
251  1    8.317591217955169        1.7150521299930652       0.0                     # C
252  1    10.69396744927356        1.7150521299930652       0.0                     # C
253  1    13.07048088476235        1.7150521299930652       0.0                     # C
254  1    15.446857116080741       1.7150521299930652       0.0                     # C
255  1    17.82337055156953        1.7150521299930652       0.0                     # C
256  1    19.011558667228726       2.4010729819902914       0.0                     # C
257  1    21.38807210271752        2.4010729819902914       0.0                     # C
258  1    23.764448334035908       2.4010729819902914       0.0                     # C
259  1    26.1409617695247         2.4010729819902914       0.0                     # C
260  1    28.517338000843093       2.4010729819902914       0.0                     # C
261  1    30.893851436331882       2.4010729819902914       0.0                     # C
262  1    33.270227667650275       2.4010729819902914       0.0                     # C
263  1    35.64674110313906        2.4010729819902914       0.0                     # C
264  1    38.02311733445745        2.4010729819902914       0.0                     # C
265  1    2.376513435488791        2.4010729819902914       0.0                     # C
266  1    4.752889666807182        2.4010729819902914       0.0                     # C
267  1    7.1294031022959725       2.4010729819902914       0.0                     # C
268  1    9.505779333614363        2.4010729819902914       0.0                     # C
269  1    11.882292769103154       2.4010729819902914       0.0                     # C
270  1    14.258669000421547       2.4010729819902914       0.0                     # C
271  1    16.635182435910338       2.4010729819902914       0.0                     # C
272  1    21.38807210271752        3.7731146859847438       0.0                     # C
273  1    23.764448334035908       3.7731146859847438       0.0                     # C
274  1    26.1409617695247         3.7731146859847438       0.0                     # C
275  1    28.517338000843093       3.7731146859847438       0.0                     # C
276  1    30.893851436331882       3.7731146859847438       0.0                     # C
277  1    33.270227667650275       3.7731146859847438       0.0                     # C
278  1    35.64674110313906        3.7731146859847438       0.0                     # C
279  1    38.02311733445745        3.7731146859847438       0.0                     # C
280  1    2.376513435488791        3.7731146859847438       0.0                     # C
281  1    4.752889666807182        3.7731146859847438       0.0                     # C
282  1    7.1294031022959725       3.7731146859847438       0.0                     # C
283  1    9.505779333614363        3.7731146859847438       0.0                     # C
284  1    11.882292769103154       3.7731146859847438       0.0                     # C
285  1    14.258669000421547       3.7731146859847438       0.0                     # C
286  1    16.635182435910338       3.7731146859847438       0.0                     # C
287  1    19.011558667228726       3.7731146859847438       0.0                     # C
288  1    20.199746782887924       4.459135537981969        0.0                     # C
289  1    22.576260218376714       4.459135537981969        0.0                     # C
290  1    24.9526364496951         4.459135537981969        0.0                     # C
291  1    27.3291498851839         4.459135537981969        0.0                     # C
292  1    29.705526116502284       4.459135537981969        0.0                     # C
293  1    32.08203955199108        4.459135537981969        0.0                     # C
294  1    34.45841578330946        4.459135537981969        0.0                     # C
295  1    36.834929218798266       4.459135537981969        0.0                     # C
296  1    1.1881881156591956       4.459135537981969        0.0                     # C
297  1    3.5647015511479863       4.459135537981969        0.0                     # C
298  1    5.941077782466378        4.459135537981969        0.0                     # C
299  1    8.317591217955169        4.459135537981969        0.0                     # C
300  1    10.69396744927356        4.459135537981969        0.0                     # C
301  1    13.07048088476235        4.459135537981969        0.0                     # C
302  1    15.446857116080741       4.459135537981969        0.0                     # C
303  1    17.82337055156953        4.459135537981969        0.0                     # C
304  1    20.199746782887924       5.831177241976421        0.0                     # C
305  1    22.576260218376714       5.831177241976421        0.0                     # C
306  1    24.9526364496951         5.831177241976421        0.0                     # C
307  1    27.3291498851839         5.831177241976421        0.0                     # C
308  1    29.705526116502284       5.831177241976421        0.0                     # C
309  1    32.08203955199108        5.831177241976421        0.0                     # C
310  1    34.45841578330946        5.831177241976421        0.0                     # C
311  1    36.834929218798266       5.831177241976421        0.0                     # C
312  1    1.1881881156591956       5.831177241976421        0.0                     # C
313  1    3.5647015511479863       5.831177241976421        0.0                     # C
314  1    5.941077782466378        5.831177241976421        0.0                     # C
315  1    8.317591217955169        5.831177241976421        0.0                     # C
316  1    10.69396744927356        5.831177241976421        0.0                     # C
317  1    13.07048088476235        5.831177241976421        0.0                     # C
318  1    15.446857116080741       5.831177241976421        0.0                     # C
319  1    17.82337055156953        5.831177241976421        0.0                     # C
320  1    19.011558667228726       6.517198093973648        0.0                     # C
321  1    21.38807210271752        6.517198093973648        0.0                     # C
322  1    23.764448334035908       6.517198093973648        0.0                     # C
323  1    26.1409617695247         6.517198093973648        0.0                     # C
324  1    28.517338000843093       6.517198093973648        0.0                     # C
325  1    30.893851436331882       6.517198093973648        0.0                     # C
326  1    33.270227667650275       6.517198093973648        0.0                     # C
327  1    35.64674110313906        6.517198093973648        0.0                     # C
328  1    38.02311733445745        6.517198093973648        0.0                     # C
329  1    2.376513435488791        6.517198093973648        0.0                     # C
330  1    4.752889666807182        6.517198093973648        0.0                     # C
331  1    7.1294031022959725       6.517198093973648        0.0                     # C
332  1    9.505779333614363        6.517198093973648        0.0                     # C
333  1    11.882292769103154       6.517198093973648        0.0                     # C
334  1    14.258669000421547       6.517198093973648        0.0                     # C
335  1    16.635182435910338       6.517198093973648        0.0                     # C
336  1    21.38807210271752        7.8892397979681          0.0                     # C
337  1    23.764448334035908       7.8892397979681          0.0                     # C
338  1    26.1409617695247         7.8892397979681          0.0                     # C