DATA FILE Produced from netmc results (cf David Morley)
715 atoms
1716 bonds
0 angles
0 dihedrals
0 impropers
2 atom types
2 bond types
0 angle types
0 dihedral types
0 improper types
0.00000 118.75100618855458 xlo xhi
0.00000 102.84138655447383 ylo yhi

# Pair Coeffs
#
# 1  O
# 2  Si

# Bond Coeffs
# 
# 1  O-O
# 2  Si-O
# 3  O-O rep
# 4  Si-Si rep

 Masses

1 28.10000 # O 
2 32.01000 # Si

 Atoms # molecular

1    1    2    64.3232879025685         58.562456232408714       5.0                      # Si
2    2    2    74.21948599429093        58.562456232408714       5.0                      # Si
3    3    2    84.11511274497698        58.562456232408714       5.0                      # Si
4    4    2    94.01131083669944        58.562456232408714       5.0                      # Si
5    5    2    103.90693758738547       58.562456232408714       5.0                      # Si
6    6    2    113.80313567910794       58.562456232408714       5.0                      # Si
7    7    2    4.94781337534302         58.562456232408714       5.0                      # Si
8    8    2    14.84401146706547        58.562456232408714       5.0                      # Si
9    9    2    24.73963821775151        58.562456232408714       5.0                      # Si
10   10   2    34.63583630947396        58.562456232408714       5.0                      # Si
11   11   2    44.53146306016           58.562456232408714       5.0                      # Si
12   12   2    59.37547452722548        61.41916141447743        5.0                      # Si
13   13   2    69.27167261894792        61.41916141447743        5.0                      # Si
14   14   2    79.16729936963397        61.41916141447743        5.0                      # Si
15   15   2    89.0634974613564         61.41916141447743        5.0                      # Si
16   16   2    98.95912421204245        61.41916141447743        5.0                      # Si
17   17   2    108.85532230376492       61.41916141447743        5.0                      # Si
18   18   2    118.75094905445096       61.41916141447743        5.0                      # Si
19   19   2    9.896198091722452        61.41916141447743        5.0                      # Si
20   20   2    19.79182484240849        61.41916141447743        5.0                      # Si
21   21   2    29.68802293413094        61.41916141447743        5.0                      # Si
22   22   2    39.58364968481698        61.41916141447743        5.0                      # Si
23   23   2    49.47984777653942        61.41916141447743        5.0                      # Si
24   24   2    69.27167261894792        67.13257177861487        5.0                      # Si
25   25   2    79.16729936963397        67.13257177861487        5.0                      # Si
26   26   2    89.0634974613564         67.13257177861487        5.0                      # Si
27   27   2    98.95912421204245        67.13257177861487        5.0                      # Si
28   28   2    108.85532230376492       67.13257177861487        5.0                      # Si
29   29   2    118.75094905445096       67.13257177861487        5.0                      # Si
30   30   2    9.896198091722452        67.13257177861487        5.0                      # Si
31   31   2    19.79182484240849        67.13257177861487        5.0                      # Si
32   32   2    29.68802293413094        67.13257177861487        5.0                      # Si
33   33   2    39.58364968481698        67.13257177861487        5.0                      # Si
34   34   2    49.47984777653942        67.13257177861487        5.0                      # Si
35   35   2    59.37547452722548        67.13257177861487        5.0                      # Si
36   36   2    64.3232879025685         69.98927696068358        5.0                      # Si
37   37   2    74.21948599429093        69.98927696068358        5.0                      # Si
38   38   2    84.11511274497698        69.98927696068358        5.0                      # Si
39   39   2    94.01131083669944        69.98927696068358        5.0                      # Si
40   40   2    103.90693758738547       69.98927696068358        5.0                      # Si
41   41   2    113.80313567910794       69.98927696068358        5.0                      # Si
42   42   2    4.94781337534302         69.98927696068358        5.0                      # Si
43   43   2    14.84401146706547        69.98927696068358        5.0                      # Si
44   44   2    24.73963821775151        69.98927696068358        5.0                      # Si
45   45   2    34.63583630947396        69.98927696068358        5.0                      # Si
46   46   2    44.53146306016           69.98927696068358        5.0                      # Si
47   47   2    54.42766115188246        69.98927696068358        5.0                      # Si
48   48   2    64.3232879025685         75.70268732482101        5.0                      # Si
49   49   2    74.21948599429093        75.70268732482101        5.0                      # Si
50   50   2    84.11511274497698        75.70268732482101        5.0                      # Si
51   51   2    94.01131083669944        75.70268732482101        5.0                      # Si
52   52   2    103.90693758738547       75.70268732482101        5.0                      # Si
53   53   2    113.80313567910794       75.70268732482101        5.0                      # Si
54   54   2    4.94781337534302         75.70268732482101        5.0                      # Si
55   55   2    14.84401146706547        75.70268732482101        5.0                      # Si
56   56   2    24.73963821775151        75.70268732482101        5.0                      # Si
57   57   2    34.63583630947396        75.70268732482101        5.0                      # Si
58   58   2    44.53146306016           75.70268732482101        5.0                      # Si
59   59   2    54.42766115188246        75.70268732482101        5.0                      # Si
60   60   2    59.37547452722548        78.55939250688974        5.0                      # Si
61   61   2    69.27167261894792        78.55939250688974        5.0                      # Si
62   62   2    79.16729936963397        78.55939250688974        5.0                      # Si
63   63   2    89.0634974613564         78.55939250688974        5.0                      # Si
64   64   2    98.95912421204245        78.55939250688974        5.0                      # Si
65   65   2    108.85532230376492       78.55939250688974        5.0                      # Si
66   66   2    118.75094905445096       78.55939250688974        5.0                      # Si
67   67   2    9.896198091722452        78.55939250688974        5.0                      # Si
68   68   2    19.79182484240849        78.55939250688974        5.0                      # Si
69   69   2    29.68802293413094        78.55939250688974        5.0                      # Si
70   70   2    39.58364968481698        78.55939250688974        5.0                      # Si
71   71   2    49.47984777653942        78.55939250688974        5.0                      # Si
72   72   2    69.27167261894792        84.27280287102717        5.0                      # Si
73   73   2    79.16729936963397        84.27280287102717        5.0                      # Si
74   74   2    89.0634974613564         84.27280287102717        5.0                      # Si
75   75   2    98.95912421204245        84.27280287102717        5.0                      # Si
76   76   2    108.85532230376492       84.27280287102717        5.0                      # Si
77   77   2    118.75094905445096       84.27280287102717        5.0                      # Si
78   78   2    9.896198091722452        84.27280287102717        5.0                      # Si
79   79   2    19.79182484240849        84.27280287102717        5.0                      # Si
80   80   2    29.68802293413094        84.27280287102717        5.0                      # Si
81   81   2    39.58364968481698        84.27280287102717        5.0                      # Si
82   82   2    49.47984777653942        84.27280287102717        5.0                      # Si
83   83   2    59.37547452722548        84.27280287102717        5.0                      # Si
84   84   2    64.3232879025685         87.12950805309589        5.0                      # Si
85   85   2    74.21948599429093        87.12950805309589        5.0                      # Si
86   86   2    84.11511274497698        87.12950805309589        5.0                      # Si
87   87   2    94.01131083669944        87.12950805309589        5.0                      # Si
88   88   2    103.90693758738547       87.12950805309589        5.0                      # Si
89   89   2    113.80313567910794       87.12950805309589        5.0                      # Si
90   90   2    4.94781337534302         87.12950805309589        5.0                      # Si
91   91   2    14.84401146706547        87.12950805309589        5.0                      # Si
92   92   2    24.73963821775151        87.12950805309589        5.0                      # Si
93   93   2    34.63583630947396        87.12950805309589        5.0                      # Si
94   94   2    44.53146306016           87.12950805309589        5.0                      # Si
95   95   2    54.42766115188246        87.12950805309589        5.0                      # Si
96   96   2    64.3232879025685         92.84291841723332        5.0                      # Si
97   97   2    74.21948599429093        92.84291841723332        5.0                      # Si
98   98   2    84.11511274497698        92.84291841723332        5.0                      # Si
99   99   2    94.01131083669944        92.84291841723332        5.0                      # Si
100  100  2    103.90693758738547       92.84291841723332        5.0                      # Si
101  101  2    113.80313567910794       92.84291841723332        5.0                      # Si
102  102  2    4.94781337534302         92.84291841723332        5.0                      # Si
103  103  2    14.84401146706547        92.84291841723332        5.0                      # Si
104  104  2    24.73963821775151        92.84291841723332        5.0                      # Si
105  105  2    34.63583630947396        92.84291841723332        5.0                      # Si
106  106  2    44.53146306016           92.84291841723332        5.0                      # Si
107  107  2    54.42766115188246        92.84291841723332        5.0                      # Si
108  108  2    59.37547452722548        95.69962359930206        5.0                      # Si
109  109  2    69.27167261894792        95.69962359930206        5.0                      # Si
110  110  2    79.16729936963397        95.69962359930206        5.0                      # Si
111  111  2    89.0634974613564         95.69962359930206        5.0                      # Si
112  112  2    98.95912421204245        95.69962359930206        5.0                      # Si
113  113  2    108.85532230376492       95.69962359930206        5.0                      # Si
114  114  2    118.75094905445096       95.69962359930206        5.0                      # Si
115  115  2    9.896198091722452        95.69962359930206        5.0                      # Si
116  116  2    19.79182484240849        95.69962359930206        5.0                      # Si
117  117  2    29.68802293413094        95.69962359930206        5.0                      # Si
118  118  2    39.58364968481698        95.69962359930206        5.0                      # Si
119  119  2    49.47984777653942        95.69962359930206        5.0                      # Si
120  120  2    69.27167261894792        101.41303396343947       5.0                      # Si
121  121  2    79.16729936963397        101.41303396343947       5.0                      # Si
122  122  2    89.0634974613564         101.41303396343947       5.0                      # Si
123  123  2    98.95912421204245        101.41303396343947       5.0                      # Si
124  124  2    108.85532230376492       101.41303396343947       5.0                      # Si
125  125  2    118.75094905445096       101.41303396343947       5.0                      # Si
126  126  2    9.896198091722452        101.41303396343947       5.0                      # Si
127  127  2    19.79182484240849        101.41303396343947       5.0                      # Si
128  128  2    29.68802293413094        101.41303396343947       5.0                      # Si
129  129  2    39.58364968481698        101.41303396343947       5.0                      # Si
130  130  2    49.47984777653942        101.41303396343947       5.0                      # Si
131  131  2    59.37547452722548        101.41303396343947       5.0                      # Si
132  132  2    64.3232879025685         1.4283525910343589       5.0                      # Si
133  133  2    74.21948599429093        1.4283525910343589       5.0                      # Si
134  134  2    84.11511274497698        1.4283525910343589       5.0                      # Si
135  135  2    94.01131083669944        1.4283525910343589       5.0                      # Si
136  136  2    103.90693758738547       1.4283525910343589       5.0                      # Si
137  137  2    113.80313567910794       1.4283525910343589       5.0                      # Si
138  138  2    4.94781337534302         1.4283525910343589       5.0                      # Si
139  139  2    14.84401146706547        1.4283525910343589       5.0                      # Si
140  140  2    24.73963821775151        1.4283525910343589       5.0                      # Si
141  141  2    34.63583630947396        1.4283525910343589       5.0                      # Si
142  142  2    44.53146306016           1.4283525910343589       5.0                      # Si
143  143  2    54.42766115188246        1.4283525910343589       5.0                      # Si
144  144  2    64.3232879025685         7.141762955171794        5.0                      # Si
145  145  2    74.21948599429093        7.141762955171794        5.0                      # Si
146  146  2    84.11511274497698        7.141762955171794        5.0                      # Si
147  147  2    94.01131083669944        7.141762955171794        5.0                      # Si
148  148  2    103.90693758738547       7.141762955171794        5.0                      # Si
149  149  2    113.80313567910794       7.141762955171794        5.0                      # Si
150  150  2    4.94781337534302         7.141762955171794        5.0                      # Si
151  151  2    14.84401146706547        7.141762955171794        5.0                      # Si
152  152  2    24.73963821775151        7.141762955171794        5.0                      # Si
153  153  2    34.63583630947396        7.141762955171794        5.0                      # Si
154  154  2    44.53146306016           7.141762955171794        5.0                      # Si
155  155  2    54.42766115188246        7.141762955171794        5.0                      # Si
156  156  2    59.37547452722548        9.998468137240513        5.0                      # Si
157  157  2    69.27167261894792        9.998468137240513        5.0                      # Si
158  158  2    79.16729936963397        9.998468137240513        5.0                      # Si
159  159  2    89.0634974613564         9.998468137240513        5.0                      # Si
160  160  2    98.95912421204245        9.998468137240513        5.0                      # Si
161  161  2    108.85532230376492       9.998468137240513        5.0                      # Si
162  162  2    118.75094905445096       9.998468137240513        5.0                      # Si
163  163  2    9.896198091722452        9.998468137240513        5.0                      # Si
164  164  2    19.79182484240849        9.998468137240513        5.0                      # Si
165  165  2    29.68802293413094        9.998468137240513        5.0                      # Si
166  166  2    39.58364968481698        9.998468137240513        5.0                      # Si
167  167  2    49.47984777653942        9.998468137240513        5.0                      # Si
168  168  2    69.27167261894792        15.71187850137795        5.0                      # Si
169  169  2    79.16729936963397        15.71187850137795        5.0                      # Si
170  170  2    89.0634974613564         15.71187850137795        5.0                      # Si
171  171  2    98.95912421204245        15.71187850137795        5.0                      # Si
172  172  2    108.85532230376492       15.71187850137795        5.0                      # Si
173  173  2    118.75094905445096       15.71187850137795        5.0                      # Si
174  174  2    9.896198091722452        15.71187850137795        5.0                      # Si
175  175  2    19.79182484240849        15.71187850137795        5.0                      # Si
176  176  2    29.68802293413094        15.71187850137795        5.0                      # Si
177  177  2    39.58364968481698        15.71187850137795        5.0                      # Si
178  178  2    49.47984777653942        15.71187850137795        5.0                      # Si
179  179  2    59.37547452722548        15.71187850137795        5.0                      # Si
180  180  2    64.3232879025685         18.568583683446665       5.0                      # Si
181  181  2    74.21948599429093        18.568583683446665       5.0                      # Si
182  182  2    84.11511274497698        18.568583683446665       5.0                      # Si
183  183  2    94.01131083669944        18.568583683446665       5.0                      # Si
184  184  2    103.90693758738547       18.568583683446665       5.0                      # Si
185  185  2    113.80313567910794       18.568583683446665       5.0                      # Si
186  186  2    4.94781337534302         18.568583683446665       5.0                      # Si
187  187  2    14.84401146706547        18.568583683446665       5.0                      # Si
188  188  2    24.73963821775151        18.568583683446665       5.0                      # Si
189  189  2    34.63583630947396        18.568583683446665       5.0                      # Si
190  190  2    44.53146306016           18.568583683446665       5.0                      # Si
191  191  2    54.42766115188246        18.568583683446665       5.0                      # Si
192  192  2    64.3232879025685         24.2819940475841         5.0                      # Si
193  193  2    74.21948599429093        24.2819940475841         5.0                      # Si
194  194  2    84.11511274497698        24.2819940475841         5.0                      # Si
195  195  2    94.01131083669944        24.2819940475841         5.0                      # Si
196  196  2    103.90693758738547       24.2819940475841         5.0                      # Si
197  197  2    113.80313567910794       24.2819940475841         5.0                      # Si
198  198  2    4.94781337534302         24.2819940475841         5.0                      # Si
199  199  2    14.84401146706547        24.2819940475841         5.0                      # Si
200  200  2    24.73963821775151        24.2819940475841         5.0                      # Si
201  201  2    34.63583630947396        24.2819940475841         5.0                      # Si
202  202  2    44.53146306016           24.2819940475841         5.0                      # Si
203  203  2    54.42766115188246        24.2819940475841         5.0                      # Si
204  204  2    59.37547452722548        27.13869922965282        5.0                      # Si
205  205  2    69.27167261894792        27.13869922965282        5.0                      # Si
206  206  2    79.16729936963397        27.13869922965282        5.0                      # Si
207  207  2    89.0634974613564         27.13869922965282        5.0                      # Si
208  208  2    98.95912421204245        27.13869922965282        5.0                      # Si
209  209  2    108.85532230376492       27.13869922965282        5.0                      # Si
210  210  2    118.75094905445096       27.13869922965282        5.0                      # Si
211  211  2    9.896198091722452        27.13869922965282        5.0                      # Si
212  212  2    19.79182484240849        27.13869922965282        5.0                      # Si
213  213  2    29.68802293413094        27.13869922965282        5.0                      # Si
214  214  2    39.58364968481698        27.13869922965282        5.0                      # Si
215  215  2    49.47984777653942        27.13869922965282        5.0                      # Si
216  216  2    69.27167261894792        32.85210959379025        5.0                      # Si
217  217  2    79.16729936963397        32.85210959379025        5.0                      # Si
218  218  2    89.0634974613564         32.85210959379025        5.0                      # Si
219  219  2    98.95912421204245        32.85210959379025        5.0                      # Si
220  220  2    108.85532230376492       32.85210959379025        5.0                      # Si
221  221  2    118.75094905445096       32.85210959379025        5.0                      # Si
222  222  2    9.896198091722452        32.85210959379025        5.0                      # Si
223  223  2    19.79182484240849        32.85210959379025        5.0                      # Si
224  224  2    29.68802293413094        32.85210959379025        5.0                      # Si
225  225  2    39.58364968481698        32.85210959379025        5.0                      # Si
226  226  2    49.47984777653942        32.85210959379025        5.0                      # Si
227  227  2    59.37547452722548        32.85210959379025        5.0                      # Si
228  228  2    64.3232879025685         35.70881477585897        5.0                      # Si
229  229  2    74.21948599429093        35.70881477585897        5.0                      # Si
230  230  2    84.11511274497698        35.70881477585897        5.0                      # Si
231  231  2    94.01131083669944        35.70881477585897        5.0                      # Si
232  232  2    103.90693758738547       35.70881477585897        5.0                      # Si
233  233  2    113.80313567910794       35.70881477585897        5.0                      # Si
234  234  2    4.94781337534302         35.70881477585897        5.0                      # Si
235  235  2    14.84401146706547        35.70881477585897        5.0                      # Si
236  236  2    24.73963821775151        35.70881477585897        5.0                      # Si
237  237  2    34.63583630947396        35.70881477585897        5.0                      # Si
238  238  2    44.53146306016           35.70881477585897        5.0                      # Si
239  239  2    54.42766115188246        35.70881477585897        5.0                      # Si
240  240  2    64.3232879025685         41.42222513999641        5.0                      # Si
241  241  2    74.21948599429093        41.42222513999641        5.0                      # Si
242  242  2    84.11511274497698        41.42222513999641        5.0                      # Si
243  243  2    94.01131083669944        41.42222513999641        5.0                      # Si
244  244  2    103.90693758738547       41.42222513999641        5.0                      # Si
245  245  2    113.80313567910794       41.42222513999641        5.0                      # Si
246  246  2    4.94781337534302         41.42222513999641        5.0                      # Si
247  247  2    14.84401146706547        41.42222513999641        5.0                      # Si
248  248  2    24.73963821775151        41.42222513999641        5.0                      # Si
249  249  2    34.63583630947396        41.42222513999641        5.0                      # Si
250  250  2    44.53146306016           41.42222513999641        5.0                      # Si
251  251  2    54.42766115188246        41.42222513999641        5.0                      # Si
252  252  2    59.37547452722548        44.27893032206512        5.0                      # Si
253  253  2    69.27167261894792        44.27893032206512        5.0                      # Si
254  254  2    79.16729936963397        44.27893032206512        5.0                      # Si
255  255  2    89.0634974613564         44.27893032206512        5.0                      # Si
256  256  2    98.95912421204245        44.27893032206512        5.0                      # Si
257  257  2    108.85532230376492       44.27893032206512        5.0                      # Si
258  258  2    118.75094905445096       44.27893032206512        5.0                      # Si
259  259  2    9.896198091722452        44.27893032206512        5.0                      # Si
260  260  2    19.79182484240849        44.27893032206512        5.0                      # Si
261  261  2    29.68802293413094        44.27893032206512        5.0                      # Si
262  262  2    39.58364968481698        44.27893032206512        5.0                      # Si
263  263  2    49.47984777653942        44.27893032206512        5.0                      # Si
264  264  2    69.27167261894792        49.99234068620256        5.0                      # Si
265  265  2    79.16729936963397        49.99234068620256        5.0                      # Si
266  266  2    89.0634974613564         49.99234068620256        5.0                      # Si
267  267  2    98.95912421204245        49.99234068620256        5.0                      # Si
268  268  2    108.85532230376492       49.99234068620256        5.0                      # Si
269  269  2    118.75094905445096       49.99234068620256        5.0                      # Si
270  270  2    9.896198091722452        49.99234068620256        5.0                      # Si
271  271  2    19.79182484240849        49.99234068620256        5.0                      # Si
272  272  2    29.68802293413094        49.99234068620256        5.0                      # Si
273  273  2    39.58364968481698        49.99234068620256        5.0                      # Si
274  274  2    49.47984777653942        49.99234068620256        5.0                      # Si
275  275  2    59.37547452722548        49.99234068620256        5.0                      # Si
276  276  2    64.3232879025685         52.84904586827128        5.0                      # Si
277  277  2    74.21948599429093        52.84904586827128        5.0                      # Si
278  278  2    84.11511274497698        52.84904586827128        5.0                      # Si
279  279  2    94.01131083669944        52.84904586827128        5.0                      # Si
280  280  2    103.90693758738547       52.84904586827128        5.0                      # Si
281  281  2    113.80313567910794       52.84904586827128        5.0                      # Si
282  282  2    4.94781337534302         52.84904586827128        5.0                      # Si
283  283  2    14.84401146706547        52.84904586827128        5.0                      # Si
284  284  2    24.73963821775151        52.84904586827128        5.0                      # Si
285  285  2    34.63583630947396        52.84904586827128        5.0                      # Si
286  286  2    44.53146306016           52.84904586827128        5.0                      # Si
287  287  1    61.84938121489699        59.990808823443075       5.0                      # O
288  288  1    66.5474802607582         60.42382152533529        5.0                      # O
289  289  1    64.8232879025685         55.70575105034           5.0                      # O
290  290  1    71.74557930661942        59.990808823443075       5.0                      # O
291  291  1    76.44339268196245        60.42382152533529        5.0                      # O
292  292  1    74.71948599429093        55.70575105034           5.0                      # O
293  293  1    81.64120605730548        59.990808823443075       5.0                      # O
294  294  1    86.3393051031667         60.42382152533529        5.0                      # O
295  295  1    84.61511274497698        55.70575105034           5.0                      # O
296  296  1    91.53740414902792        59.990808823443075       5.0                      # O
297  297  1    96.23521752437094        60.42382152533529        5.0                      # O
298  298  1    94.51131083669944        55.70575105034           5.0                      # O
299  299  1    101.43303089971397       59.990808823443075       5.0                      # O
300  300  1    106.1311299455752        60.42382152533529        5.0                      # O
301  301  1    104.40693758738547       55.70575105034           5.0                      # O
302  302  1    111.32922899143642       59.990808823443075       5.0                      # O
303  303  1    116.02704236677945       60.42382152533529        5.0                      # O
304  304  1    114.30313567910794       55.70575105034           5.0                      # O
305  305  1    2.4738781206196974       59.990808823443075       5.0                      # O
306  306  1    7.172005733532735        60.42382152533529        5.0                      # O
307  307  1    5.44781337534302         55.70575105034           5.0                      # O
308  308  1    12.370104779393962       59.990808823443075       5.0                      # O
309  309  1    17.06791815473698        60.42382152533529        5.0                      # O
310  310  1    15.34401146706547        55.70575105034           5.0                      # O
311  311  1    22.26573153008           59.990808823443075       5.0                      # O