DATA FILE Produced from netmc results (cf David Morley)
1716 atoms
5720 bonds
0 angles
0 dihedrals
0 impropers
2 atom types
0 bond types
2 bond types
0 angle types
0 dihedral types
0 improper types
0.00000 118.75100618855458 xlo xhi
0.00000 102.84138655447383 ylo yhi
0.0000 200.0000 zlo zhi

# Pair Coeffs
#
# 1  O
# 2  Si

# Bond Coeffs
# 
# 1  O-O
# 2  Si-O
# 3  O-O rep
# 4  Si-Si rep

 Masses

1 28.10000 # O 
2 32.01000 # Si

 Atoms # molecular

1    1    2    64.3232879025685         58.562456232408714       5.0                      # Si
2    2    2    64.3232879025685         58.562456232408714       11.081138669036534       # Si
3    3    2    74.21948599429093        58.562456232408714       5.0                      # Si
4    4    2    74.21948599429093        58.562456232408714       11.081138669036534       # Si
5    5    2    84.11511274497698        58.562456232408714       5.0                      # Si
6    6    2    84.11511274497698        58.562456232408714       11.081138669036534       # Si
7    7    2    94.01131083669944        58.562456232408714       5.0                      # Si
8    8    2    94.01131083669944        58.562456232408714       11.081138669036534       # Si
9    9    2    103.90693758738547       58.562456232408714       5.0                      # Si
10   10   2    103.90693758738547       58.562456232408714       11.081138669036534       # Si
11   11   2    113.80313567910794       58.562456232408714       5.0                      # Si
12   12   2    113.80313567910794       58.562456232408714       11.081138669036534       # Si
13   13   2    4.94781337534302         58.562456232408714       5.0                      # Si
14   14   2    4.94781337534302         58.562456232408714       11.081138669036534       # Si
15   15   2    14.84401146706547        58.562456232408714       5.0                      # Si
16   16   2    14.84401146706547        58.562456232408714       11.081138669036534       # Si
17   17   2    24.73963821775151        58.562456232408714       5.0                      # Si
18   18   2    24.73963821775151        58.562456232408714       11.081138669036534       # Si
19   19   2    34.63583630947396        58.562456232408714       5.0                      # Si
20   20   2    34.63583630947396        58.562456232408714       11.081138669036534       # Si
21   21   2    44.53146306016           58.562456232408714       5.0                      # Si
22   22   2    44.53146306016           58.562456232408714       11.081138669036534       # Si
23   23   2    59.37547452722548        61.41916141447743        5.0                      # Si
24   24   2    59.37547452722548        61.41916141447743        11.081138669036534       # Si
25   25   2    69.27167261894792        61.41916141447743        5.0                      # Si
26   26   2    69.27167261894792        61.41916141447743        11.081138669036534       # Si
27   27   2    79.16729936963397        61.41916141447743        5.0                      # Si
28   28   2    79.16729936963397        61.41916141447743        11.081138669036534       # Si
29   29   2    89.0634974613564         61.41916141447743        5.0                      # Si
30   30   2    89.0634974613564         61.41916141447743        11.081138669036534       # Si
31   31   2    98.95912421204245        61.41916141447743        5.0                      # Si
32   32   2    98.95912421204245        61.41916141447743        11.081138669036534       # Si
33   33   2    108.85532230376492       61.41916141447743        5.0                      # Si
34   34   2    108.85532230376492       61.41916141447743        11.081138669036534       # Si
35   35   2    118.75094905445096       61.41916141447743        5.0                      # Si
36   36   2    118.75094905445096       61.41916141447743        11.081138669036534       # Si
37   37   2    9.896198091722452        61.41916141447743        5.0                      # Si
38   38   2    9.896198091722452        61.41916141447743        11.081138669036534       # Si
39   39   2    19.79182484240849        61.41916141447743        5.0                      # Si
40   40   2    19.79182484240849        61.41916141447743        11.081138669036534       # Si
41   41   2    29.68802293413094        61.41916141447743        5.0                      # Si
42   42   2    29.68802293413094        61.41916141447743        11.081138669036534       # Si
43   43   2    39.58364968481698        61.41916141447743        5.0                      # Si
44   44   2    39.58364968481698        61.41916141447743        11.081138669036534       # Si
45   45   2    49.47984777653942        61.41916141447743        5.0                      # Si
46   46   2    49.47984777653942        61.41916141447743        11.081138669036534       # Si
47   47   2    69.27167261894792        67.13257177861487        5.0                      # Si
48   48   2    69.27167261894792        67.13257177861487        11.081138669036534       # Si
49   49   2    79.16729936963397        67.13257177861487        5.0                      # Si
50   50   2    79.16729936963397        67.13257177861487        11.081138669036534       # Si
51   51   2    89.0634974613564         67.13257177861487        5.0                      # Si
52   52   2    89.0634974613564         67.13257177861487        11.081138669036534       # Si
53   53   2    98.95912421204245        67.13257177861487        5.0                      # Si
54   54   2    98.95912421204245        67.13257177861487        11.081138669036534       # Si
55   55   2    108.85532230376492       67.13257177861487        5.0                      # Si
56   56   2    108.85532230376492       67.13257177861487        11.081138669036534       # Si
57   57   2    118.75094905445096       67.13257177861487        5.0                      # Si
58   58   2    118.75094905445096       67.13257177861487        11.081138669036534       # Si
59   59   2    9.896198091722452        67.13257177861487        5.0                      # Si
60   60   2    9.896198091722452        67.13257177861487        11.081138669036534       # Si
61   61   2    19.79182484240849        67.13257177861487        5.0                      # Si
62   62   2    19.79182484240849        67.13257177861487        11.081138669036534       # Si
63   63   2    29.68802293413094        67.13257177861487        5.0                      # Si
64   64   2    29.68802293413094        67.13257177861487        11.081138669036534       # Si
65   65   2    39.58364968481698        67.13257177861487        5.0                      # Si
66   66   2    39.58364968481698        67.13257177861487        11.081138669036534       # Si
67   67   2    49.47984777653942        67.13257177861487        5.0                      # Si
68   68   2    49.47984777653942        67.13257177861487        11.081138669036534       # Si
69   69   2    59.37547452722548        67.13257177861487        5.0                      # Si
70   70   2    59.37547452722548        67.13257177861487        11.081138669036534       # Si
71   71   2    64.3232879025685         69.98927696068358        5.0                      # Si
72   72   2    64.3232879025685         69.98927696068358        11.081138669036534       # Si
73   73   2    74.21948599429093        69.98927696068358        5.0                      # Si
74   74   2    74.21948599429093        69.98927696068358        11.081138669036534       # Si
75   75   2    84.11511274497698        69.98927696068358        5.0                      # Si
76   76   2    84.11511274497698        69.98927696068358        11.081138669036534       # Si
77   77   2    94.01131083669944        69.98927696068358        5.0                      # Si
78   78   2    94.01131083669944        69.98927696068358        11.081138669036534       # Si
79   79   2    103.90693758738547       69.98927696068358        5.0                      # Si
80   80   2    103.90693758738547       69.98927696068358        11.081138669036534       # Si
81   81   2    113.80313567910794       69.98927696068358        5.0                      # Si
82   82   2    113.80313567910794       69.98927696068358        11.081138669036534       # Si
83   83   2    4.94781337534302         69.98927696068358        5.0                      # Si
84   84   2    4.94781337534302         69.98927696068358        11.081138669036534       # Si
85   85   2    14.84401146706547        69.98927696068358        5.0                      # Si
86   86   2    14.84401146706547        69.98927696068358        11.081138669036534       # Si
87   87   2    24.73963821775151        69.98927696068358        5.0                      # Si
88   88   2    24.73963821775151        69.98927696068358        11.081138669036534       # Si
89   89   2    34.63583630947396        69.98927696068358        5.0                      # Si
90   90   2    34.63583630947396        69.98927696068358        11.081138669036534       # Si
91   91   2    44.53146306016           69.98927696068358        5.0                      # Si
92   92   2    44.53146306016           69.98927696068358        11.081138669036534       # Si
93   93   2    54.42766115188246        69.98927696068358        5.0                      # Si
94   94   2    54.42766115188246        69.98927696068358        11.081138669036534       # Si
95   95   2    64.3232879025685         75.70268732482101        5.0                      # Si
96   96   2    64.3232879025685         75.70268732482101        11.081138669036534       # Si
97   97   2    74.21948599429093        75.70268732482101        5.0                      # Si
98   98   2    74.21948599429093        75.70268732482101        11.081138669036534       # Si
99   99   2    84.11511274497698        75.70268732482101        5.0                      # Si
100  100  2    84.11511274497698        75.70268732482101        11.081138669036534       # Si
101  101  2    94.01131083669944        75.70268732482101        5.0                      # Si
102  102  2    94.01131083669944        75.70268732482101        11.081138669036534       # Si
103  103  2    103.90693758738547       75.70268732482101        5.0                      # Si
104  104  2    103.90693758738547       75.70268732482101        11.081138669036534       # Si
105  105  2    113.80313567910794       75.70268732482101        5.0                      # Si
106  106  2    113.80313567910794       75.70268732482101        11.081138669036534       # Si
107  107  2    4.94781337534302         75.70268732482101        5.0                      # Si
108  108  2    4.94781337534302         75.70268732482101        11.081138669036534       # Si
109  109  2    14.84401146706547        75.70268732482101        5.0                      # Si
110  110  2    14.84401146706547        75.70268732482101        11.081138669036534       # Si
111  111  2    24.73963821775151        75.70268732482101        5.0                      # Si
112  112  2    24.73963821775151        75.70268732482101        11.081138669036534       # Si
113  113  2    34.63583630947396        75.70268732482101        5.0                      # Si
114  114  2    34.63583630947396        75.70268732482101        11.081138669036534       # Si
115  115  2    44.53146306016           75.70268732482101        5.0                      # Si
116  116  2    44.53146306016           75.70268732482101        11.081138669036534       # Si
117  117  2    54.42766115188246        75.70268732482101        5.0                      # Si
118  118  2    54.42766115188246        75.70268732482101        11.081138669036534       # Si
119  119  2    59.37547452722548        78.55939250688974        5.0                      # Si
120  120  2    59.37547452722548        78.55939250688974        11.081138669036534       # Si
121  121  2    69.27167261894792        78.55939250688974        5.0                      # Si
122  122  2    69.27167261894792        78.55939250688974        11.081138669036534       # Si
123  123  2    79.16729936963397        78.55939250688974        5.0                      # Si
124  124  2    79.16729936963397        78.55939250688974        11.081138669036534       # Si
125  125  2    89.0634974613564         78.55939250688974        5.0                      # Si
126  126  2    89.0634974613564         78.55939250688974        11.081138669036534       # Si
127  127  2    98.95912421204245        78.55939250688974        5.0                      # Si
128  128  2    98.95912421204245        78.55939250688974        11.081138669036534       # Si
129  129  2    108.85532230376492       78.55939250688974        5.0                      # Si
130  130  2    108.85532230376492       78.55939250688974        11.081138669036534       # Si
131  131  2    118.75094905445096       78.55939250688974        5.0                      # Si
132  132  2    118.75094905445096       78.55939250688974        11.081138669036534       # Si
133  133  2    9.896198091722452        78.55939250688974        5.0                      # Si
134  134  2    9.896198091722452        78.55939250688974        11.081138669036534       # Si
135  135  2    19.79182484240849        78.55939250688974        5.0                      # Si
136  136  2    19.79182484240849        78.55939250688974        11.081138669036534       # Si
137  137  2    29.68802293413094        78.55939250688974        5.0                      # Si
138  138  2    29.68802293413094        78.55939250688974        11.081138669036534       # Si
139  139  2    39.58364968481698        78.55939250688974        5.0                      # Si
140  140  2    39.58364968481698        78.55939250688974        11.081138669036534       # Si
141  141  2    49.47984777653942        78.55939250688974        5.0                      # Si
142  142  2    49.47984777653942        78.55939250688974        11.081138669036534       # Si
143  143  2    69.27167261894792        84.27280287102717        5.0                      # Si
144  144  2    69.27167261894792        84.27280287102717        11.081138669036534       # Si
145  145  2    79.16729936963397        84.27280287102717        5.0                      # Si
146  146  2    79.16729936963397        84.27280287102717        11.081138669036534       # Si
147  147  2    89.0634974613564         84.27280287102717        5.0                      # Si
148  148  2    89.0634974613564         84.27280287102717        11.081138669036534       # Si
149  149  2    98.95912421204245        84.27280287102717        5.0                      # Si
150  150  2    98.95912421204245        84.27280287102717        11.081138669036534       # Si
151  151  2    108.85532230376492       84.27280287102717        5.0                      # Si
152  152  2    108.85532230376492       84.27280287102717        11.081138669036534       # Si
153  153  2    118.75094905445096       84.27280287102717        5.0                      # Si
154  154  2    118.75094905445096       84.27280287102717        11.081138669036534       # Si
155  155  2    9.896198091722452        84.27280287102717        5.0                      # Si
156  156  2    9.896198091722452        84.27280287102717        11.081138669036534       # Si
157  157  2    19.79182484240849        84.27280287102717        5.0                      # Si
158  158  2    19.79182484240849        84.27280287102717        11.081138669036534       # Si
159  159  2    29.68802293413094        84.27280287102717        5.0                      # Si
160  160  2    29.68802293413094        84.27280287102717        11.081138669036534       # Si
161  161  2    39.58364968481698        84.27280287102717        5.0                      # Si
162  162  2    39.58364968481698        84.27280287102717        11.081138669036534       # Si
163  163  2    49.47984777653942        84.27280287102717        5.0                      # Si
164  164  2    49.47984777653942        84.27280287102717        11.081138669036534       # Si
165  165  2    59.37547452722548        84.27280287102717        5.0                      # Si
166  166  2    59.37547452722548        84.27280287102717        11.081138669036534       # Si
167  167  2    64.3232879025685         87.12950805309589        5.0                      # Si
168  168  2    64.3232879025685         87.12950805309589        11.081138669036534       # Si
169  169  2    74.21948599429093        87.12950805309589        5.0                      # Si
170  170  2    74.21948599429093        87.12950805309589        11.081138669036534       # Si
171  171  2    84.11511274497698        87.12950805309589        5.0                      # Si
172  172  2    84.11511274497698        87.12950805309589        11.081138669036534       # Si
173  173  2    94.01131083669944        87.12950805309589        5.0                      # Si
174  174  2    94.01131083669944        87.12950805309589        11.081138669036534       # Si
175  175  2    103.90693758738547       87.12950805309589        5.0                      # Si
176  176  2    103.90693758738547       87.12950805309589        11.081138669036534       # Si
177  177  2    113.80313567910794       87.12950805309589        5.0                      # Si
178  178  2    113.80313567910794       87.12950805309589        11.081138669036534       # Si
179  179  2    4.94781337534302         87.12950805309589        5.0                      # Si
180  180  2    4.94781337534302         87.12950805309589        11.081138669036534       # Si
181  181  2    14.84401146706547        87.12950805309589        5.0                      # Si
182  182  2    14.84401146706547        87.12950805309589        11.081138669036534       # Si
183  183  2    24.73963821775151        87.12950805309589        5.0                      # Si
184  184  2    24.73963821775151        87.12950805309589        11.081138669036534       # Si
185  185  2    34.63583630947396        87.12950805309589        5.0                      # Si
186  186  2    34.63583630947396        87.12950805309589        11.081138669036534       # Si
187  187  2    44.53146306016           87.12950805309589        5.0                      # Si
188  188  2    44.53146306016           87.12950805309589        11.081138669036534       # Si
189  189  2    54.42766115188246        87.12950805309589        5.0                      # Si
190  190  2    54.42766115188246        87.12950805309589        11.081138669036534       # Si
191  191  2    64.3232879025685         92.84291841723332        5.0                      # Si
192  192  2    64.3232879025685         92.84291841723332        11.081138669036534       # Si
193  193  2    74.21948599429093        92.84291841723332        5.0                      # Si
194  194  2    74.21948599429093        92.84291841723332        11.081138669036534       # Si
195  195  2    84.11511274497698        92.84291841723332        5.0                      # Si
196  196  2    84.11511274497698        92.84291841723332        11.081138669036534       # Si
197  197  2    94.01131083669944        92.84291841723332        5.0                      # Si
198  198  2    94.01131083669944        92.84291841723332        11.081138669036534       # Si
199  199  2    103.90693758738547       92.84291841723332        5.0                      # Si
200  200  2    103.90693758738547       92.84291841723332        11.081138669036534       # Si
201  201  2    113.80313567910794       92.84291841723332        5.0                      # Si
202  202  2    113.80313567910794       92.84291841723332        11.081138669036534       # Si
203  203  2    4.94781337534302         92.84291841723332        5.0                      # Si
204  204  2    4.94781337534302         92.84291841723332        11.081138669036534       # Si
205  205  2    14.84401146706547        92.84291841723332        5.0                      # Si
206  206  2    14.84401146706547        92.84291841723332        11.081138669036534       # Si
207  207  2    24.73963821775151        92.84291841723332        5.0                      # Si
208  208  2    24.73963821775151        92.84291841723332        11.081138669036534       # Si
209  209  2    34.63583630947396        92.84291841723332        5.0                      # Si
210  210  2    34.63583630947396        92.84291841723332        11.081138669036534       # Si
211  211  2    44.53146306016           92.84291841723332        5.0                      # Si
212  212  2    44.53146306016           92.84291841723332        11.081138669036534       # Si
213  213  2    54.42766115188246        92.84291841723332        5.0                      # Si
214  214  2    54.42766115188246        92.84291841723332        11.081138669036534       # Si
215  215  2    59.37547452722548        95.69962359930206        5.0                      # Si
216  216  2    59.37547452722548        95.69962359930206        11.081138669036534       # Si
217  217  2    69.27167261894792        95.69962359930206        5.0                      # Si
218  218  2    69.27167261894792        95.69962359930206        11.081138669036534       # Si
219  219  2    79.16729936963397        95.69962359930206        5.0                      # Si
220  220  2    79.16729936963397        95.69962359930206        11.081138669036534       # Si
221  221  2    89.0634974613564         95.69962359930206        5.0                      # Si
222  222  2    89.0634974613564         95.69962359930206        11.081138669036534       # Si
223  223  2    98.95912421204245        95.69962359930206        5.0                      # Si
224  224  2    98.95912421204245        95.69962359930206        11.081138669036534       # Si
225  225  2    108.85532230376492       95.69962359930206        5.0                      # Si
226  226  2    108.85532230376492       95.69962359930206        11.081138669036534       # Si
227  227  2    118.75094905445096       95.69962359930206        5.0                      # Si
228  228  2    118.75094905445096       95.69962359930206        11.081138669036534       # Si
229  229  2    9.896198091722452        95.69962359930206        5.0                      # Si
230  230  2    9.896198091722452        95.69962359930206        11.081138669036534       # Si
231  231  2    19.79182484240849        95.69962359930206        5.0                      # Si
232  232  2    19.79182484240849        95.69962359930206        11.081138669036534       # Si
233  233  2    29.68802293413094        95.69962359930206        5.0                      # Si
234  234  2    29.68802293413094        95.69962359930206        11.081138669036534       # Si
235  235  2    39.58364968481698        95.69962359930206        5.0                      # Si
236  236  2    39.58364968481698        95.69962359930206        11.081138669036534       # Si
237  237  2    49.47984777653942        95.69962359930206        5.0                      # Si
238  238  2    49.47984777653942        95.69962359930206        11.081138669036534       # Si
239  239  2    69.27167261894792        101.41303396343947       5.0                      # Si
240  240  2    69.27167261894792        101.41303396343947       11.081138669036534       # Si
241  241  2    79.16729936963397        101.41303396343947       5.0                      # Si
242  242  2    79.16729936963397        101.41303396343947       11.081138669036534       # Si
243  243  2    89.0634974613564         101.41303396343947       5.0                      # Si
244  244  2    89.0634974613564         101.41303396343947       11.081138669036534       # Si
245  245  2    98.95912421204245        101.41303396343947       5.0                      # Si
246  246  2    98.95912421204245        101.41303396343947       11.081138669036534       # Si
247  247  2    108.85532230376492       101.41303396343947       5.0                      # Si
248  248  2    108.85532230376492       101.41303396343947       11.081138669036534       # Si
249  249  2    118.75094905445096       101.41303396343947       5.0                      # Si
250  250  2    118.75094905445096       101.41303396343947       11.081138669036534       # Si
251  251  2    9.896198091722452        101.41303396343947       5.0                      # Si
252  252  2    9.896198091722452        101.41303396343947       11.081138669036534       # Si
253  253  2    19.79182484240849        101.41303396343947       5.0                      # Si
254  254  2    19.79182484240849        101.41303396343947       11.081138669036534       # Si
255  255  2    29.68802293413094        101.41303396343947       5.0                      # Si
256  256  2    29.68802293413094        101.41303396343947       11.081138669036534       # Si
257  257  2    39.58364968481698        101.41303396343947       5.0                      # Si
258  258  2    39.58364968481698        101.41303396343947       11.081138669036534       # Si
259  259  2    49.47984777653942        101.41303396343947       5.0                      # Si
260  260  2    49.47984777653942        101.41303396343947       11.081138669036534       # Si
261  261  2    59.37547452722548        101.41303396343947       5.0                      # Si
262  262  2    59.37547452722548        101.41303396343947       11.081138669036534       # Si
263  263  2    64.3232879025685         1.4283525910343589       5.0                      # Si
264  264  2    64.3232879025685         1.4283525910343589       11.081138669036534       # Si
265  265  2    74.21948599429093        1.4283525910343589       5.0                      # Si
266  266  2    74.21948599429093        1.4283525910343589       11.081138669036534       # Si
267  267  2    84.11511274497698        1.4283525910343589       5.0                      # Si
268  268  2    84.11511274497698        1.4283525910343589       11.081138669036534       # Si
269  269  2    94.01131083669944        1.4283525910343589       5.0                      # Si
270  270  2    94.01131083669944        1.4283525910343589       11.081138669036534       # Si
271  271  2    103.90693758738547       1.4283525910343589       5.0                      # Si
272  272  2    103.90693758738547       1.4283525910343589       11.081138669036534       # Si
273  273  2    113.80313567910794       1.4283525910343589       5.0                      # Si
274  274  2    113.80313567910794       1.4283525910343589       11.081138669036534       # Si
275  275  2    4.94781337534302         1.4283525910343589       5.0                      # Si
276  276  2    4.94781337534302         1.4283525910343589       11.081138669036534       # Si
277  277  2    14.84401146706547        1.4283525910343589       5.0                      # Si
278  278  2    14.84401146706547        1.4283525910343589       11.081138669036534       # Si
279  279  2    24.73963821775151        1.4283525910343589       5.0                      # Si
280  280  2    24.73963821775151        1.4283525910343589       11.081138669036534       # Si
281  281  2    34.63583630947396        1.4283525910343589       5.0                      # Si
282  282  2    34.63583630947396        1.4283525910343589       11.081138669036534       # Si
283  283  2    44.53146306016           1.4283525910343589       5.0                      # Si
284  284  2    44.53146306016           1.4283525910343589       11.081138669036534       # Si
285  285  2    54.42766115188246        1.4283525910343589       5.0                      # Si
286  286  2    54.42766115188246        1.4283525910343589       11.081138669036534       # Si
287  287  2    64.3232879025685         7.141762955171794        5.0                      # Si
288  288  2    64.3232879025685         7.141762955171794        11.081138669036534       # Si
289  289  2    74.21948599429093        7.141762955171794        5.0                      # Si
290  290  2    74.21948599429093        7.141762955171794        11.081138669036534       # Si
291  291  2    84.11511274497698        7.141762955171794        5.0                      # Si
292  292  2    84.11511274497698        7.141762955171794        11.081138669036534       # Si
293  293  2    94.01131083669944        7.141762955171794        5.0                      # Si
294  294  2    94.01131083669944        7.141762955171794        11.081138669036534       # Si
295  295  2    103.90693758738547       7.141762955171794        5.0                      # Si
296  296  2    103.90693758738547       7.141762955171794        11.081138669036534       # Si
297  297  2    113.80313567910794       7.141762955171794        5.0                      # Si
298  298  2    113.80313567910794       7.141762955171794        11.081138669036534       # Si
299  299  2    4.94781337534302         7.141762955171794        5.0                      # Si
300  300  2    4.94781337534302         7.141762955171794        11.081138669036534       # Si
301  301  2    14.84401146706547        7.141762955171794        5.0                      # Si
302  302  2    14.84401146706547        7.141762955171794        11.081138669036534       # Si
303  303  2    24.73963821775151        7.141762955171794        5.0                      # Si
304  304  2    24.73963821775151        7.141762955171794        11.081138669036534       # Si
305  305  2    34.63583630947396        7.141762955171794        5.0                      # Si
306  306  2    34.63583630947396        7.141762955171794        11.081138669036534       # Si
307  307  2    44.53146306016           7.141762955171794        5.0                      # Si
308  308  2    44.53146306016           7.141762955171794        11.081138669036534       # Si
309  309  2    54.42766115188246        7.141762955171794        5.0                      # Si
310  310  2    54.42766115188246        7.141762955171794        11.081138669036534       # Si
311  311  2    59.37547452722548        9.998468137240513        5.0                      # Si