DATA FILE Produced from netmc results (cf David Morley)
3375 atoms
8100 bonds
0 angles
0 dihedrals
0 impropers
2 atom types
2 bond types
0 angle types
0 dihedral types
0 improper types
0.00000 257.369015858179 xlo xhi
0.00000 224.462184965837 ylo yhi

# Pair Coeffs
#
# 1  O
# 2  Si

# Bond Coeffs
# 
# 1  O-O
# 2  Si-O
# 3  O-O rep
# 4  Si-Si rep

 Masses

1 28.10000 # O 
2 32.01000 # Si

 Atoms # molecular

1    1    2    133.63399265145233       119.42539329633638       5.0                      # Si
2    2    2    143.532510594667         119.42539329633638       5.0                      # Si
3    3    2    153.43160003846089       119.42539329633638       5.0                      # Si
4    4    2    163.33011798167556       119.42539329633638       5.0                      # Si
5    5    2    173.22920742546947       119.42539329633638       5.0                      # Si
6    6    2    183.1277253113506        119.42539329633638       5.0                      # Si
7    7    2    193.0268147551445        119.42539329633638       5.0                      # Si
8    8    2    202.92533269835914       119.42539329633638       5.0                      # Si
9    9    2    212.82442214215303       119.42539329633638       5.0                      # Si
10   10   2    222.72294008536772       119.42539329633638       5.0                      # Si
11   11   2    232.6220295291616        119.42539329633638       5.0                      # Si
12   12   2    242.52054747237628       119.42539329633638       5.0                      # Si
13   13   2    252.4196369161702        119.42539329633638       5.0                      # Si
14   14   2    4.949258942940573        119.42539329633638       5.0                      # Si
15   15   2    14.848348386734466       119.42539329633638       5.0                      # Si
16   16   2    24.746866329949135       119.42539329633638       5.0                      # Si
17   17   2    34.645955773743026       119.42539329633638       5.0                      # Si
18   18   2    44.544473716957704       119.42539329633638       5.0                      # Si
19   19   2    54.44356316075159        119.42539329633638       5.0                      # Si
20   20   2    64.34208110396627        119.42539329633638       5.0                      # Si
21   21   2    74.24117054776015        119.42539329633638       5.0                      # Si
22   22   2    84.13968849097482        119.42539329633638       5.0                      # Si
23   23   2    94.0387778774352         119.42539329633638       5.0                      # Si
24   24   2    103.93729582064987       119.42539329633638       5.0                      # Si
25   25   2    113.83638526444375       119.42539329633638       5.0                      # Si
26   26   2    128.68473370851174       122.30311359877015       5.0                      # Si
27   27   2    138.5832515943929        122.30311359877015       5.0                      # Si
28   28   2    148.4823410381868        122.30311359877015       5.0                      # Si
29   29   2    158.38085898140145       122.30311359877015       5.0                      # Si
30   30   2    168.27994842519536       122.30311359877015       5.0                      # Si
31   31   2    178.17846636841003       122.30311359877015       5.0                      # Si
32   32   2    188.07755581220394       122.30311359877015       5.0                      # Si
33   33   2    197.97607375541855       122.30311359877015       5.0                      # Si
34   34   2    207.87516319921247       122.30311359877015       5.0                      # Si
35   35   2    217.77368114242714       122.30311359877015       5.0                      # Si
36   36   2    227.67277058622105       122.30311359877015       5.0                      # Si
37   37   2    237.5712884721022        122.30311359877015       5.0                      # Si
38   38   2    247.47037791589608       122.30311359877015       5.0                      # Si
39   39   2    257.36889585911075       122.30311359877015       5.0                      # Si
40   40   2    9.899089443793892        122.30311359877015       5.0                      # Si
41   41   2    19.797607387008565       122.30311359877015       5.0                      # Si
42   42   2    29.69669683080246        122.30311359877015       5.0                      # Si
43   43   2    39.59521477401713        122.30311359877015       5.0                      # Si
44   44   2    49.49430421781102        122.30311359877015       5.0                      # Si
45   45   2    59.39282210369216        122.30311359877015       5.0                      # Si
46   46   2    69.29191154748605        122.30311359877015       5.0                      # Si
47   47   2    79.19042949070072        122.30311359877015       5.0                      # Si
48   48   2    89.08951893449462        122.30311359877015       5.0                      # Si
49   49   2    98.98803687770928        122.30311359877015       5.0                      # Si
50   50   2    108.88712632150317       122.30311359877015       5.0                      # Si
51   51   2    118.78564426471786       122.30311359877015       5.0                      # Si
52   52   2    138.5832515943929        128.05855426097116       5.0                      # Si
53   53   2    148.4823410381868        128.05855426097116       5.0                      # Si
54   54   2    158.38085898140145       128.05855426097116       5.0                      # Si
55   55   2    168.27994842519536       128.05855426097116       5.0                      # Si
56   56   2    178.17846636841003       128.05855426097116       5.0                      # Si
57   57   2    188.07755581220394       128.05855426097116       5.0                      # Si
58   58   2    197.97607375541855       128.05855426097116       5.0                      # Si
59   59   2    207.87516319921247       128.05855426097116       5.0                      # Si
60   60   2    217.77368114242714       128.05855426097116       5.0                      # Si
61   61   2    227.67277058622105       128.05855426097116       5.0                      # Si
62   62   2    237.5712884721022        128.05855426097116       5.0                      # Si
63   63   2    247.47037791589608       128.05855426097116       5.0                      # Si
64   64   2    257.36889585911075       128.05855426097116       5.0                      # Si
65   65   2    9.899089443793892        128.05855426097116       5.0                      # Si
66   66   2    19.797607387008565       128.05855426097116       5.0                      # Si
67   67   2    29.69669683080246        128.05855426097116       5.0                      # Si
68   68   2    39.59521477401713        128.05855426097116       5.0                      # Si
69   69   2    49.49430421781102        128.05855426097116       5.0                      # Si
70   70   2    59.39282210369216        128.05855426097116       5.0                      # Si
71   71   2    69.29191154748605        128.05855426097116       5.0                      # Si
72   72   2    79.19042949070072        128.05855426097116       5.0                      # Si
73   73   2    89.08951893449462        128.05855426097116       5.0                      # Si
74   74   2    98.98803687770928        128.05855426097116       5.0                      # Si
75   75   2    108.88712632150317       128.05855426097116       5.0                      # Si
76   76   2    118.78564426471786       128.05855426097116       5.0                      # Si
77   77   2    128.68473370851174       128.05855426097116       5.0                      # Si
78   78   2    133.63399265145233       130.9362745634049        5.0                      # Si
79   79   2    143.532510594667         130.9362745634049        5.0                      # Si
80   80   2    153.43160003846089       130.9362745634049        5.0                      # Si
81   81   2    163.33011798167556       130.9362745634049        5.0                      # Si
82   82   2    173.22920742546947       130.9362745634049        5.0                      # Si
83   83   2    183.1277253113506        130.9362745634049        5.0                      # Si
84   84   2    193.0268147551445        130.9362745634049        5.0                      # Si
85   85   2    202.92533269835914       130.9362745634049        5.0                      # Si
86   86   2    212.82442214215303       130.9362745634049        5.0                      # Si
87   87   2    222.72294008536772       130.9362745634049        5.0                      # Si
88   88   2    232.6220295291616        130.9362745634049        5.0                      # Si
89   89   2    242.52054747237628       130.9362745634049        5.0                      # Si
90   90   2    252.4196369161702        130.9362745634049        5.0                      # Si
91   91   2    4.949258942940573        130.9362745634049        5.0                      # Si
92   92   2    14.848348386734466       130.9362745634049        5.0                      # Si
93   93   2    24.746866329949135       130.9362745634049        5.0                      # Si
94   94   2    34.645955773743026       130.9362745634049        5.0                      # Si
95   95   2    44.544473716957704       130.9362745634049        5.0                      # Si
96   96   2    54.44356316075159        130.9362745634049        5.0                      # Si
97   97   2    64.34208110396627        130.9362745634049        5.0                      # Si
98   98   2    74.24117054776015        130.9362745634049        5.0                      # Si
99   99   2    84.13968849097482        130.9362745634049        5.0                      # Si
100  100  2    94.0387778774352         130.9362745634049        5.0                      # Si
101  101  2    103.93729582064987       130.9362745634049        5.0                      # Si
102  102  2    113.83638526444375       130.9362745634049        5.0                      # Si
103  103  2    123.73490320765843       130.9362745634049        5.0                      # Si
104  104  2    133.63399265145233       136.69171522560595       5.0                      # Si
105  105  2    143.532510594667         136.69171522560595       5.0                      # Si
106  106  2    153.43160003846089       136.69171522560595       5.0                      # Si
107  107  2    163.33011798167556       136.69171522560595       5.0                      # Si
108  108  2    173.22920742546947       136.69171522560595       5.0                      # Si
109  109  2    183.1277253113506        136.69171522560595       5.0                      # Si
110  110  2    193.0268147551445        136.69171522560595       5.0                      # Si
111  111  2    202.92533269835914       136.69171522560595       5.0                      # Si
112  112  2    212.82442214215303       136.69171522560595       5.0                      # Si
113  113  2    222.72294008536772       136.69171522560595       5.0                      # Si
114  114  2    232.6220295291616        136.69171522560595       5.0                      # Si
115  115  2    242.52054747237628       136.69171522560595       5.0                      # Si
116  116  2    252.4196369161702        136.69171522560595       5.0                      # Si
117  117  2    4.949258942940573        136.69171522560595       5.0                      # Si
118  118  2    14.848348386734466       136.69171522560595       5.0                      # Si
119  119  2    24.746866329949135       136.69171522560595       5.0                      # Si
120  120  2    34.645955773743026       136.69171522560595       5.0                      # Si
121  121  2    44.544473716957704       136.69171522560595       5.0                      # Si
122  122  2    54.44356316075159        136.69171522560595       5.0                      # Si
123  123  2    64.34208110396627        136.69171522560595       5.0                      # Si
124  124  2    74.24117054776015        136.69171522560595       5.0                      # Si
125  125  2    84.13968849097482        136.69171522560595       5.0                      # Si
126  126  2    94.0387778774352         136.69171522560595       5.0                      # Si
127  127  2    103.93729582064987       136.69171522560595       5.0                      # Si
128  128  2    113.83638526444375       136.69171522560595       5.0                      # Si
129  129  2    123.73490320765843       136.69171522560595       5.0                      # Si
130  130  2    128.68473370851174       139.5694355280397        5.0                      # Si
131  131  2    138.5832515943929        139.5694355280397        5.0                      # Si
132  132  2    148.4823410381868        139.5694355280397        5.0                      # Si
133  133  2    158.38085898140145       139.5694355280397        5.0                      # Si
134  134  2    168.27994842519536       139.5694355280397        5.0                      # Si
135  135  2    178.17846636841003       139.5694355280397        5.0                      # Si
136  136  2    188.07755581220394       139.5694355280397        5.0                      # Si
137  137  2    197.97607375541855       139.5694355280397        5.0                      # Si
138  138  2    207.87516319921247       139.5694355280397        5.0                      # Si
139  139  2    217.77368114242714       139.5694355280397        5.0                      # Si
140  140  2    227.67277058622105       139.5694355280397        5.0                      # Si
141  141  2    237.5712884721022        139.5694355280397        5.0                      # Si
142  142  2    247.47037791589608       139.5694355280397        5.0                      # Si
143  143  2    257.36889585911075       139.5694355280397        5.0                      # Si
144  144  2    9.899089443793892        139.5694355280397        5.0                      # Si
145  145  2    19.797607387008565       139.5694355280397        5.0                      # Si
146  146  2    29.69669683080246        139.5694355280397        5.0                      # Si
147  147  2    39.59521477401713        139.5694355280397        5.0                      # Si
148  148  2    49.49430421781102        139.5694355280397        5.0                      # Si
149  149  2    59.39282210369216        139.5694355280397        5.0                      # Si
150  150  2    69.29191154748605        139.5694355280397        5.0                      # Si
151  151  2    79.19042949070072        139.5694355280397        5.0                      # Si
152  152  2    89.08951893449462        139.5694355280397        5.0                      # Si
153  153  2    98.98803687770928        139.5694355280397        5.0                      # Si
154  154  2    108.88712632150317       139.5694355280397        5.0                      # Si
155  155  2    118.78564426471786       139.5694355280397        5.0                      # Si
156  156  2    138.5832515943929        145.3248761902407        5.0                      # Si
157  157  2    148.4823410381868        145.3248761902407        5.0                      # Si
158  158  2    158.38085898140145       145.3248761902407        5.0                      # Si
159  159  2    168.27994842519536       145.3248761902407        5.0                      # Si
160  160  2    178.17846636841003       145.3248761902407        5.0                      # Si
161  161  2    188.07755581220394       145.3248761902407        5.0                      # Si
162  162  2    197.97607375541855       145.3248761902407        5.0                      # Si
163  163  2    207.87516319921247       145.3248761902407        5.0                      # Si
164  164  2    217.77368114242714       145.3248761902407        5.0                      # Si
165  165  2    227.67277058622105       145.3248761902407        5.0                      # Si
166  166  2    237.5712884721022        145.3248761902407        5.0                      # Si
167  167  2    247.47037791589608       145.3248761902407        5.0                      # Si
168  168  2    257.36889585911075       145.3248761902407        5.0                      # Si
169  169  2    9.899089443793892        145.3248761902407        5.0                      # Si
170  170  2    19.797607387008565       145.3248761902407        5.0                      # Si
171  171  2    29.69669683080246        145.3248761902407        5.0                      # Si
172  172  2    39.59521477401713        145.3248761902407        5.0                      # Si
173  173  2    49.49430421781102        145.3248761902407        5.0                      # Si
174  174  2    59.39282210369216        145.3248761902407        5.0                      # Si
175  175  2    69.29191154748605        145.3248761902407        5.0                      # Si
176  176  2    79.19042949070072        145.3248761902407        5.0                      # Si
177  177  2    89.08951893449462        145.3248761902407        5.0                      # Si
178  178  2    98.98803687770928        145.3248761902407        5.0                      # Si
179  179  2    108.88712632150317       145.3248761902407        5.0                      # Si
180  180  2    118.78564426471786       145.3248761902407        5.0                      # Si
181  181  2    128.68473370851174       145.3248761902407        5.0                      # Si
182  182  2    133.63399265145233       148.20259649267447       5.0                      # Si
183  183  2    143.532510594667         148.20259649267447       5.0                      # Si
184  184  2    153.43160003846089       148.20259649267447       5.0                      # Si
185  185  2    163.33011798167556       148.20259649267447       5.0                      # Si
186  186  2    173.22920742546947       148.20259649267447       5.0                      # Si
187  187  2    183.1277253113506        148.20259649267447       5.0                      # Si
188  188  2    193.0268147551445        148.20259649267447       5.0                      # Si
189  189  2    202.92533269835914       148.20259649267447       5.0                      # Si
190  190  2    212.82442214215303       148.20259649267447       5.0                      # Si
191  191  2    222.72294008536772       148.20259649267447       5.0                      # Si
192  192  2    232.6220295291616        148.20259649267447       5.0                      # Si
193  193  2    242.52054747237628       148.20259649267447       5.0                      # Si
194  194  2    252.4196369161702        148.20259649267447       5.0                      # Si
195  195  2    4.949258942940573        148.20259649267447       5.0                      # Si
196  196  2    14.848348386734466       148.20259649267447       5.0                      # Si
197  197  2    24.746866329949135       148.20259649267447       5.0                      # Si
198  198  2    34.645955773743026       148.20259649267447       5.0                      # Si
199  199  2    44.544473716957704       148.20259649267447       5.0                      # Si
200  200  2    54.44356316075159        148.20259649267447       5.0                      # Si
201  201  2    64.34208110396627        148.20259649267447       5.0                      # Si
202  202  2    74.24117054776015        148.20259649267447       5.0                      # Si
203  203  2    84.13968849097482        148.20259649267447       5.0                      # Si
204  204  2    94.0387778774352         148.20259649267447       5.0                      # Si
205  205  2    103.93729582064987       148.20259649267447       5.0                      # Si
206  206  2    113.83638526444375       148.20259649267447       5.0                      # Si
207  207  2    123.73490320765843       148.20259649267447       5.0                      # Si
208  208  2    133.63399265145233       153.95803715487548       5.0                      # Si
209  209  2    143.532510594667         153.95803715487548       5.0                      # Si
210  210  2    153.43160003846089       153.95803715487548       5.0                      # Si
211  211  2    163.33011798167556       153.95803715487548       5.0                      # Si
212  212  2    173.22920742546947       153.95803715487548       5.0                      # Si
213  213  2    183.1277253113506        153.95803715487548       5.0                      # Si
214  214  2    193.0268147551445        153.95803715487548       5.0                      # Si
215  215  2    202.92533269835914       153.95803715487548       5.0                      # Si
216  216  2    212.82442214215303       153.95803715487548       5.0                      # Si
217  217  2    222.72294008536772       153.95803715487548       5.0                      # Si
218  218  2    232.6220295291616        153.95803715487548       5.0                      # Si
219  219  2    242.52054747237628       153.95803715487548       5.0                      # Si
220  220  2    252.4196369161702        153.95803715487548       5.0                      # Si
221  221  2    4.949258942940573        153.95803715487548       5.0                      # Si
222  222  2    14.848348386734466       153.95803715487548       5.0                      # Si
223  223  2    24.746866329949135       153.95803715487548       5.0                      # Si
224  224  2    34.645955773743026       153.95803715487548       5.0                      # Si
225  225  2    44.544473716957704       153.95803715487548       5.0                      # Si
226  226  2    54.44356316075159        153.95803715487548       5.0                      # Si
227  227  2    64.34208110396627        153.95803715487548       5.0                      # Si
228  228  2    74.24117054776015        153.95803715487548       5.0                      # Si
229  229  2    84.13968849097482        153.95803715487548       5.0                      # Si
230  230  2    94.0387778774352         153.95803715487548       5.0                      # Si
231  231  2    103.93729582064987       153.95803715487548       5.0                      # Si
232  232  2    113.83638526444375       153.95803715487548       5.0                      # Si
233  233  2    123.73490320765843       153.95803715487548       5.0                      # Si
234  234  2    128.68473370851174       156.83575745730923       5.0                      # Si
235  235  2    138.5832515943929        156.83575745730923       5.0                      # Si
236  236  2    148.4823410381868        156.83575745730923       5.0                      # Si
237  237  2    158.38085898140145       156.83575745730923       5.0                      # Si
238  238  2    168.27994842519536       156.83575745730923       5.0                      # Si
239  239  2    178.17846636841003       156.83575745730923       5.0                      # Si
240  240  2    188.07755581220394       156.83575745730923       5.0                      # Si
241  241  2    197.97607375541855       156.83575745730923       5.0                      # Si
242  242  2    207.87516319921247       156.83575745730923       5.0                      # Si
243  243  2    217.77368114242714       156.83575745730923       5.0                      # Si
244  244  2    227.67277058622105       156.83575745730923       5.0                      # Si
245  245  2    237.5712884721022        156.83575745730923       5.0                      # Si
246  246  2    247.47037791589608       156.83575745730923       5.0                      # Si
247  247  2    257.36889585911075       156.83575745730923       5.0                      # Si
248  248  2    9.899089443793892        156.83575745730923       5.0                      # Si
249  249  2    19.797607387008565       156.83575745730923       5.0                      # Si
250  250  2    29.69669683080246        156.83575745730923       5.0                      # Si
251  251  2    39.59521477401713        156.83575745730923       5.0                      # Si
252  252  2    49.49430421781102        156.83575745730923       5.0                      # Si
253  253  2    59.39282210369216        156.83575745730923       5.0                      # Si
254  254  2    69.29191154748605        156.83575745730923       5.0                      # Si
255  255  2    79.19042949070072        156.83575745730923       5.0                      # Si
256  256  2    89.08951893449462        156.83575745730923       5.0                      # Si
257  257  2    98.98803687770928        156.83575745730923       5.0                      # Si
258  258  2    108.88712632150317       156.83575745730923       5.0                      # Si
259  259  2    118.78564426471786       156.83575745730923       5.0                      # Si
260  260  2    138.5832515943929        162.59119811951024       5.0                      # Si
261  261  2    148.4823410381868        162.59119811951024       5.0                      # Si
262  262  2    158.38085898140145       162.59119811951024       5.0                      # Si
263  263  2    168.27994842519536       162.59119811951024       5.0                      # Si
264  264  2    178.17846636841003       162.59119811951024       5.0                      # Si
265  265  2    188.07755581220394       162.59119811951024       5.0                      # Si
266  266  2    197.97607375541855       162.59119811951024       5.0                      # Si
267  267  2    207.87516319921247       162.59119811951024       5.0                      # Si
268  268  2    217.77368114242714       162.59119811951024       5.0                      # Si
269  269  2    227.67277058622105       162.59119811951024       5.0                      # Si
270  270  2    237.5712884721022        162.59119811951024       5.0                      # Si
271  271  2    247.47037791589608       162.59119811951024       5.0                      # Si
272  272  2    257.36889585911075       162.59119811951024       5.0                      # Si
273  273  2    9.899089443793892        162.59119811951024       5.0                      # Si
274  274  2    19.797607387008565       162.59119811951024       5.0                      # Si
275  275  2    29.69669683080246        162.59119811951024       5.0                      # Si
276  276  2    39.59521477401713        162.59119811951024       5.0                      # Si
277  277  2    49.49430421781102        162.59119811951024       5.0                      # Si
278  278  2    59.39282210369216        162.59119811951024       5.0                      # Si
279  279  2    69.29191154748605        162.59119811951024       5.0                      # Si
280  280  2    79.19042949070072        162.59119811951024       5.0                      # Si
281  281  2    89.08951893449462        162.59119811951024       5.0                      # Si
282  282  2    98.98803687770928        162.59119811951024       5.0                      # Si
283  283  2    108.88712632150317       162.59119811951024       5.0                      # Si
284  284  2    118.78564426471786       162.59119811951024       5.0                      # Si
285  285  2    128.68473370851174       162.59119811951024       5.0                      # Si
286  286  2    133.63399265145233       165.46891842194398       5.0                      # Si
287  287  2    143.532510594667         165.46891842194398       5.0                      # Si
288  288  2    153.43160003846089       165.46891842194398       5.0                      # Si
289  289  2    163.33011798167556       165.46891842194398       5.0                      # Si
290  290  2    173.22920742546947       165.46891842194398       5.0                      # Si
291  291  2    183.1277253113506        165.46891842194398       5.0                      # Si
292  292  2    193.0268147551445        165.46891842194398       5.0                      # Si
293  293  2    202.92533269835914       165.46891842194398       5.0                      # Si
294  294  2    212.82442214215303       165.46891842194398       5.0                      # Si
295  295  2    222.72294008536772       165.46891842194398       5.0                      # Si
296  296  2    232.6220295291616        165.46891842194398       5.0                      # Si
297  297  2    242.52054747237628       165.46891842194398       5.0                      # Si
298  298  2    252.4196369161702        165.46891842194398       5.0                      # Si
299  299  2    4.949258942940573        165.46891842194398       5.0                      # Si
300  300  2    14.848348386734466       165.46891842194398       5.0                      # Si
301  301  2    24.746866329949135       165.46891842194398       5.0                      # Si
302  302  2    34.645955773743026       165.46891842194398       5.0                      # Si
303  303  2    44.544473716957704       165.46891842194398       5.0                      # Si
304  304  2    54.44356316075159        165.46891842194398       5.0                      # Si
305  305  2    64.34208110396627        165.46891842194398       5.0                      # Si
306  306  2    74.24117054776015        165.46891842194398       5.0                      # Si
307  307  2    84.13968849097482        165.46891842194398       5.0                      # Si
308  308  2    94.0387778774352         165.46891842194398       5.0                      # Si
309  309  2    103.93729582064987       165.46891842194398       5.0                      # Si
310  310  2    113.83638526444375       165.46891842194398       5.0                      # Si
311  311  2    123.73490320765843       165.46891842194398       5.0                      # Si