DATA FILE Produced from netmc results (cf David Morley)
8100 atoms
27000 bonds
0 angles
0 dihedrals
0 impropers
2 atom types
0 bond types
2 bond types
0 angle types
0 dihedral types
0 improper types
0.00000 257.369015858179 xlo xhi
0.00000 224.462184965837 ylo yhi
0.0000 200.0000 zlo zhi

# Pair Coeffs
#
# 1  O
# 2  Si

# Bond Coeffs
# 
# 1  O-O
# 2  Si-O
# 3  O-O rep
# 4  Si-Si rep

 Masses

1 28.10000 # O 
2 32.01000 # Si

 Atoms # molecular

1    1    1    133.63399265145233       119.42539329633638       8.040569334518267        # O
2    2    1    143.532510594667         119.42539329633638       8.040569334518267        # O
3    3    1    153.43160003846089       119.42539329633638       8.040569334518267        # O
4    4    1    163.33011798167556       119.42539329633638       8.040569334518267        # O
5    5    1    173.22920742546947       119.42539329633638       8.040569334518267        # O
6    6    1    183.1277253113506        119.42539329633638       8.040569334518267        # O
7    7    1    193.0268147551445        119.42539329633638       8.040569334518267        # O
8    8    1    202.92533269835914       119.42539329633638       8.040569334518267        # O
9    9    1    212.82442214215303       119.42539329633638       8.040569334518267        # O
10   10   1    222.72294008536772       119.42539329633638       8.040569334518267        # O
11   11   1    232.6220295291616        119.42539329633638       8.040569334518267        # O
12   12   1    242.52054747237628       119.42539329633638       8.040569334518267        # O
13   13   1    252.4196369161702        119.42539329633638       8.040569334518267        # O
14   14   1    4.949258942940573        119.42539329633638       8.040569334518267        # O
15   15   1    14.848348386734466       119.42539329633638       8.040569334518267        # O
16   16   1    24.746866329949135       119.42539329633638       8.040569334518267        # O
17   17   1    34.645955773743026       119.42539329633638       8.040569334518267        # O
18   18   1    44.544473716957704       119.42539329633638       8.040569334518267        # O
19   19   1    54.44356316075159        119.42539329633638       8.040569334518267        # O
20   20   1    64.34208110396627        119.42539329633638       8.040569334518267        # O
21   21   1    74.24117054776015        119.42539329633638       8.040569334518267        # O
22   22   1    84.13968849097482        119.42539329633638       8.040569334518267        # O
23   23   1    94.0387778774352         119.42539329633638       8.040569334518267        # O
24   24   1    103.93729582064987       119.42539329633638       8.040569334518267        # O
25   25   1    113.83638526444375       119.42539329633638       8.040569334518267        # O
26   26   1    128.68473370851174       122.30311359877015       8.040569334518267        # O
27   27   1    138.5832515943929        122.30311359877015       8.040569334518267        # O
28   28   1    148.4823410381868        122.30311359877015       8.040569334518267        # O
29   29   1    158.38085898140145       122.30311359877015       8.040569334518267        # O
30   30   1    168.27994842519536       122.30311359877015       8.040569334518267        # O
31   31   1    178.17846636841003       122.30311359877015       8.040569334518267        # O
32   32   1    188.07755581220394       122.30311359877015       8.040569334518267        # O
33   33   1    197.97607375541855       122.30311359877015       8.040569334518267        # O
34   34   1    207.87516319921247       122.30311359877015       8.040569334518267        # O
35   35   1    217.77368114242714       122.30311359877015       8.040569334518267        # O
36   36   1    227.67277058622105       122.30311359877015       8.040569334518267        # O
37   37   1    237.5712884721022        122.30311359877015       8.040569334518267        # O
38   38   1    247.47037791589608       122.30311359877015       8.040569334518267        # O
39   39   1    257.36889585911075       122.30311359877015       8.040569334518267        # O
40   40   1    9.899089443793892        122.30311359877015       8.040569334518267        # O
41   41   1    19.797607387008565       122.30311359877015       8.040569334518267        # O
42   42   1    29.69669683080246        122.30311359877015       8.040569334518267        # O
43   43   1    39.59521477401713        122.30311359877015       8.040569334518267        # O
44   44   1    49.49430421781102        122.30311359877015       8.040569334518267        # O
45   45   1    59.39282210369216        122.30311359877015       8.040569334518267        # O
46   46   1    69.29191154748605        122.30311359877015       8.040569334518267        # O
47   47   1    79.19042949070072        122.30311359877015       8.040569334518267        # O
48   48   1    89.08951893449462        122.30311359877015       8.040569334518267        # O
49   49   1    98.98803687770928        122.30311359877015       8.040569334518267        # O
50   50   1    108.88712632150317       122.30311359877015       8.040569334518267        # O
51   51   1    118.78564426471786       122.30311359877015       8.040569334518267        # O
52   52   1    138.5832515943929        128.05855426097116       8.040569334518267        # O
53   53   1    148.4823410381868        128.05855426097116       8.040569334518267        # O
54   54   1    158.38085898140145       128.05855426097116       8.040569334518267        # O
55   55   1    168.27994842519536       128.05855426097116       8.040569334518267        # O
56   56   1    178.17846636841003       128.05855426097116       8.040569334518267        # O
57   57   1    188.07755581220394       128.05855426097116       8.040569334518267        # O
58   58   1    197.97607375541855       128.05855426097116       8.040569334518267        # O
59   59   1    207.87516319921247       128.05855426097116       8.040569334518267        # O
60   60   1    217.77368114242714       128.05855426097116       8.040569334518267        # O
61   61   1    227.67277058622105       128.05855426097116       8.040569334518267        # O
62   62   1    237.5712884721022        128.05855426097116       8.040569334518267        # O
63   63   1    247.47037791589608       128.05855426097116       8.040569334518267        # O
64   64   1    257.36889585911075       128.05855426097116       8.040569334518267        # O
65   65   1    9.899089443793892        128.05855426097116       8.040569334518267        # O
66   66   1    19.797607387008565       128.05855426097116       8.040569334518267        # O
67   67   1    29.69669683080246        128.05855426097116       8.040569334518267        # O
68   68   1    39.59521477401713        128.05855426097116       8.040569334518267        # O
69   69   1    49.49430421781102        128.05855426097116       8.040569334518267        # O
70   70   1    59.39282210369216        128.05855426097116       8.040569334518267        # O
71   71   1    69.29191154748605        128.05855426097116       8.040569334518267        # O
72   72   1    79.19042949070072        128.05855426097116       8.040569334518267        # O
73   73   1    89.08951893449462        128.05855426097116       8.040569334518267        # O
74   74   1    98.98803687770928        128.05855426097116       8.040569334518267        # O
75   75   1    108.88712632150317       128.05855426097116       8.040569334518267        # O
76   76   1    118.78564426471786       128.05855426097116       8.040569334518267        # O
77   77   1    128.68473370851174       128.05855426097116       8.040569334518267        # O
78   78   1    133.63399265145233       130.9362745634049        8.040569334518267        # O
79   79   1    143.532510594667         130.9362745634049        8.040569334518267        # O
80   80   1    153.43160003846089       130.9362745634049        8.040569334518267        # O
81   81   1    163.33011798167556       130.9362745634049        8.040569334518267        # O
82   82   1    173.22920742546947       130.9362745634049        8.040569334518267        # O
83   83   1    183.1277253113506        130.9362745634049        8.040569334518267        # O
84   84   1    193.0268147551445        130.9362745634049        8.040569334518267        # O
85   85   1    202.92533269835914       130.9362745634049        8.040569334518267        # O
86   86   1    212.82442214215303       130.9362745634049        8.040569334518267        # O
87   87   1    222.72294008536772       130.9362745634049        8.040569334518267        # O
88   88   1    232.6220295291616        130.9362745634049        8.040569334518267        # O
89   89   1    242.52054747237628       130.9362745634049        8.040569334518267        # O
90   90   1    252.4196369161702        130.9362745634049        8.040569334518267        # O
91   91   1    4.949258942940573        130.9362745634049        8.040569334518267        # O
92   92   1    14.848348386734466       130.9362745634049        8.040569334518267        # O
93   93   1    24.746866329949135       130.9362745634049        8.040569334518267        # O
94   94   1    34.645955773743026       130.9362745634049        8.040569334518267        # O
95   95   1    44.544473716957704       130.9362745634049        8.040569334518267        # O
96   96   1    54.44356316075159        130.9362745634049        8.040569334518267        # O
97   97   1    64.34208110396627        130.9362745634049        8.040569334518267        # O
98   98   1    74.24117054776015        130.9362745634049        8.040569334518267        # O
99   99   1    84.13968849097482        130.9362745634049        8.040569334518267        # O
100  100  1    94.0387778774352         130.9362745634049        8.040569334518267        # O
101  101  1    103.93729582064987       130.9362745634049        8.040569334518267        # O
102  102  1    113.83638526444375       130.9362745634049        8.040569334518267        # O
103  103  1    123.73490320765843       130.9362745634049        8.040569334518267        # O
104  104  1    133.63399265145233       136.69171522560595       8.040569334518267        # O
105  105  1    143.532510594667         136.69171522560595       8.040569334518267        # O
106  106  1    153.43160003846089       136.69171522560595       8.040569334518267        # O
107  107  1    163.33011798167556       136.69171522560595       8.040569334518267        # O
108  108  1    173.22920742546947       136.69171522560595       8.040569334518267        # O
109  109  1    183.1277253113506        136.69171522560595       8.040569334518267        # O
110  110  1    193.0268147551445        136.69171522560595       8.040569334518267        # O
111  111  1    202.92533269835914       136.69171522560595       8.040569334518267        # O
112  112  1    212.82442214215303       136.69171522560595       8.040569334518267        # O
113  113  1    222.72294008536772       136.69171522560595       8.040569334518267        # O
114  114  1    232.6220295291616        136.69171522560595       8.040569334518267        # O
115  115  1    242.52054747237628       136.69171522560595       8.040569334518267        # O
116  116  1    252.4196369161702        136.69171522560595       8.040569334518267        # O
117  117  1    4.949258942940573        136.69171522560595       8.040569334518267        # O
118  118  1    14.848348386734466       136.69171522560595       8.040569334518267        # O
119  119  1    24.746866329949135       136.69171522560595       8.040569334518267        # O
120  120  1    34.645955773743026       136.69171522560595       8.040569334518267        # O
121  121  1    44.544473716957704       136.69171522560595       8.040569334518267        # O
122  122  1    54.44356316075159        136.69171522560595       8.040569334518267        # O
123  123  1    64.34208110396627        136.69171522560595       8.040569334518267        # O
124  124  1    74.24117054776015        136.69171522560595       8.040569334518267        # O
125  125  1    84.13968849097482        136.69171522560595       8.040569334518267        # O
126  126  1    94.0387778774352         136.69171522560595       8.040569334518267        # O
127  127  1    103.93729582064987       136.69171522560595       8.040569334518267        # O
128  128  1    113.83638526444375       136.69171522560595       8.040569334518267        # O
129  129  1    123.73490320765843       136.69171522560595       8.040569334518267        # O
130  130  1    128.68473370851174       139.5694355280397        8.040569334518267        # O
131  131  1    138.5832515943929        139.5694355280397        8.040569334518267        # O
132  132  1    148.4823410381868        139.5694355280397        8.040569334518267        # O
133  133  1    158.38085898140145       139.5694355280397        8.040569334518267        # O
134  134  1    168.27994842519536       139.5694355280397        8.040569334518267        # O
135  135  1    178.17846636841003       139.5694355280397        8.040569334518267        # O
136  136  1    188.07755581220394       139.5694355280397        8.040569334518267        # O
137  137  1    197.97607375541855       139.5694355280397        8.040569334518267        # O
138  138  1    207.87516319921247       139.5694355280397        8.040569334518267        # O
139  139  1    217.77368114242714       139.5694355280397        8.040569334518267        # O
140  140  1    227.67277058622105       139.5694355280397        8.040569334518267        # O
141  141  1    237.5712884721022        139.5694355280397        8.040569334518267        # O
142  142  1    247.47037791589608       139.5694355280397        8.040569334518267        # O
143  143  1    257.36889585911075       139.5694355280397        8.040569334518267        # O
144  144  1    9.899089443793892        139.5694355280397        8.040569334518267        # O
145  145  1    19.797607387008565       139.5694355280397        8.040569334518267        # O
146  146  1    29.69669683080246        139.5694355280397        8.040569334518267        # O
147  147  1    39.59521477401713        139.5694355280397        8.040569334518267        # O
148  148  1    49.49430421781102        139.5694355280397        8.040569334518267        # O
149  149  1    59.39282210369216        139.5694355280397        8.040569334518267        # O
150  150  1    69.29191154748605        139.5694355280397        8.040569334518267        # O
151  151  1    79.19042949070072        139.5694355280397        8.040569334518267        # O
152  152  1    89.08951893449462        139.5694355280397        8.040569334518267        # O
153  153  1    98.98803687770928        139.5694355280397        8.040569334518267        # O
154  154  1    108.88712632150317       139.5694355280397        8.040569334518267        # O
155  155  1    118.78564426471786       139.5694355280397        8.040569334518267        # O
156  156  1    138.5832515943929        145.3248761902407        8.040569334518267        # O
157  157  1    148.4823410381868        145.3248761902407        8.040569334518267        # O
158  158  1    158.38085898140145       145.3248761902407        8.040569334518267        # O
159  159  1    168.27994842519536       145.3248761902407        8.040569334518267        # O
160  160  1    178.17846636841003       145.3248761902407        8.040569334518267        # O
161  161  1    188.07755581220394       145.3248761902407        8.040569334518267        # O
162  162  1    197.97607375541855       145.3248761902407        8.040569334518267        # O
163  163  1    207.87516319921247       145.3248761902407        8.040569334518267        # O
164  164  1    217.77368114242714       145.3248761902407        8.040569334518267        # O
165  165  1    227.67277058622105       145.3248761902407        8.040569334518267        # O
166  166  1    237.5712884721022        145.3248761902407        8.040569334518267        # O
167  167  1    247.47037791589608       145.3248761902407        8.040569334518267        # O
168  168  1    257.36889585911075       145.3248761902407        8.040569334518267        # O
169  169  1    9.899089443793892        145.3248761902407        8.040569334518267        # O
170  170  1    19.797607387008565       145.3248761902407        8.040569334518267        # O
171  171  1    29.69669683080246        145.3248761902407        8.040569334518267        # O
172  172  1    39.59521477401713        145.3248761902407        8.040569334518267        # O
173  173  1    49.49430421781102        145.3248761902407        8.040569334518267        # O
174  174  1    59.39282210369216        145.3248761902407        8.040569334518267        # O
175  175  1    69.29191154748605        145.3248761902407        8.040569334518267        # O
176  176  1    79.19042949070072        145.3248761902407        8.040569334518267        # O
177  177  1    89.08951893449462        145.3248761902407        8.040569334518267        # O
178  178  1    98.98803687770928        145.3248761902407        8.040569334518267        # O
179  179  1    108.88712632150317       145.3248761902407        8.040569334518267        # O
180  180  1    118.78564426471786       145.3248761902407        8.040569334518267        # O
181  181  1    128.68473370851174       145.3248761902407        8.040569334518267        # O
182  182  1    133.63399265145233       148.20259649267447       8.040569334518267        # O
183  183  1    143.532510594667         148.20259649267447       8.040569334518267        # O
184  184  1    153.43160003846089       148.20259649267447       8.040569334518267        # O
185  185  1    163.33011798167556       148.20259649267447       8.040569334518267        # O
186  186  1    173.22920742546947       148.20259649267447       8.040569334518267        # O
187  187  1    183.1277253113506        148.20259649267447       8.040569334518267        # O
188  188  1    193.0268147551445        148.20259649267447       8.040569334518267        # O
189  189  1    202.92533269835914       148.20259649267447       8.040569334518267        # O
190  190  1    212.82442214215303       148.20259649267447       8.040569334518267        # O
191  191  1    222.72294008536772       148.20259649267447       8.040569334518267        # O
192  192  1    232.6220295291616        148.20259649267447       8.040569334518267        # O
193  193  1    242.52054747237628       148.20259649267447       8.040569334518267        # O
194  194  1    252.4196369161702        148.20259649267447       8.040569334518267        # O
195  195  1    4.949258942940573        148.20259649267447       8.040569334518267        # O
196  196  1    14.848348386734466       148.20259649267447       8.040569334518267        # O
197  197  1    24.746866329949135       148.20259649267447       8.040569334518267        # O
198  198  1    34.645955773743026       148.20259649267447       8.040569334518267        # O
199  199  1    44.544473716957704       148.20259649267447       8.040569334518267        # O
200  200  1    54.44356316075159        148.20259649267447       8.040569334518267        # O
201  201  1    64.34208110396627        148.20259649267447       8.040569334518267        # O
202  202  1    74.24117054776015        148.20259649267447       8.040569334518267        # O
203  203  1    84.13968849097482        148.20259649267447       8.040569334518267        # O
204  204  1    94.0387778774352         148.20259649267447       8.040569334518267        # O
205  205  1    103.93729582064987       148.20259649267447       8.040569334518267        # O
206  206  1    113.83638526444375       148.20259649267447       8.040569334518267        # O
207  207  1    123.73490320765843       148.20259649267447       8.040569334518267        # O
208  208  1    133.63399265145233       153.95803715487548       8.040569334518267        # O
209  209  1    143.532510594667         153.95803715487548       8.040569334518267        # O
210  210  1    153.43160003846089       153.95803715487548       8.040569334518267        # O
211  211  1    163.33011798167556       153.95803715487548       8.040569334518267        # O
212  212  1    173.22920742546947       153.95803715487548       8.040569334518267        # O
213  213  1    183.1277253113506        153.95803715487548       8.040569334518267        # O
214  214  1    193.0268147551445        153.95803715487548       8.040569334518267        # O
215  215  1    202.92533269835914       153.95803715487548       8.040569334518267        # O
216  216  1    212.82442214215303       153.95803715487548       8.040569334518267        # O
217  217  1    222.72294008536772       153.95803715487548       8.040569334518267        # O
218  218  1    232.6220295291616        153.95803715487548       8.040569334518267        # O
219  219  1    242.52054747237628       153.95803715487548       8.040569334518267        # O
220  220  1    252.4196369161702        153.95803715487548       8.040569334518267        # O
221  221  1    4.949258942940573        153.95803715487548       8.040569334518267        # O
222  222  1    14.848348386734466       153.95803715487548       8.040569334518267        # O
223  223  1    24.746866329949135       153.95803715487548       8.040569334518267        # O
224  224  1    34.645955773743026       153.95803715487548       8.040569334518267        # O
225  225  1    44.544473716957704       153.95803715487548       8.040569334518267        # O
226  226  1    54.44356316075159        153.95803715487548       8.040569334518267        # O
227  227  1    64.34208110396627        153.95803715487548       8.040569334518267        # O
228  228  1    74.24117054776015        153.95803715487548       8.040569334518267        # O
229  229  1    84.13968849097482        153.95803715487548       8.040569334518267        # O
230  230  1    94.0387778774352         153.95803715487548       8.040569334518267        # O
231  231  1    103.93729582064987       153.95803715487548       8.040569334518267        # O
232  232  1    113.83638526444375       153.95803715487548       8.040569334518267        # O
233  233  1    123.73490320765843       153.95803715487548       8.040569334518267        # O
234  234  1    128.68473370851174       156.83575745730923       8.040569334518267        # O
235  235  1    138.5832515943929        156.83575745730923       8.040569334518267        # O
236  236  1    148.4823410381868        156.83575745730923       8.040569334518267        # O
237  237  1    158.38085898140145       156.83575745730923       8.040569334518267        # O
238  238  1    168.27994842519536       156.83575745730923       8.040569334518267        # O
239  239  1    178.17846636841003       156.83575745730923       8.040569334518267        # O
240  240  1    188.07755581220394       156.83575745730923       8.040569334518267        # O
241  241  1    197.97607375541855       156.83575745730923       8.040569334518267        # O
242  242  1    207.87516319921247       156.83575745730923       8.040569334518267        # O
243  243  1    217.77368114242714       156.83575745730923       8.040569334518267        # O
244  244  1    227.67277058622105       156.83575745730923       8.040569334518267        # O
245  245  1    237.5712884721022        156.83575745730923       8.040569334518267        # O
246  246  1    247.47037791589608       156.83575745730923       8.040569334518267        # O
247  247  1    257.36889585911075       156.83575745730923       8.040569334518267        # O
248  248  1    9.899089443793892        156.83575745730923       8.040569334518267        # O
249  249  1    19.797607387008565       156.83575745730923       8.040569334518267        # O
250  250  1    29.69669683080246        156.83575745730923       8.040569334518267        # O
251  251  1    39.59521477401713        156.83575745730923       8.040569334518267        # O
252  252  1    49.49430421781102        156.83575745730923       8.040569334518267        # O
253  253  1    59.39282210369216        156.83575745730923       8.040569334518267        # O
254  254  1    69.29191154748605        156.83575745730923       8.040569334518267        # O
255  255  1    79.19042949070072        156.83575745730923       8.040569334518267        # O
256  256  1    89.08951893449462        156.83575745730923       8.040569334518267        # O
257  257  1    98.98803687770928        156.83575745730923       8.040569334518267        # O
258  258  1    108.88712632150317       156.83575745730923       8.040569334518267        # O
259  259  1    118.78564426471786       156.83575745730923       8.040569334518267        # O
260  260  1    138.5832515943929        162.59119811951024       8.040569334518267        # O
261  261  1    148.4823410381868        162.59119811951024       8.040569334518267        # O
262  262  1    158.38085898140145       162.59119811951024       8.040569334518267        # O
263  263  1    168.27994842519536       162.59119811951024       8.040569334518267        # O
264  264  1    178.17846636841003       162.59119811951024       8.040569334518267        # O
265  265  1    188.07755581220394       162.59119811951024       8.040569334518267        # O
266  266  1    197.97607375541855       162.59119811951024       8.040569334518267        # O
267  267  1    207.87516319921247       162.59119811951024       8.040569334518267        # O
268  268  1    217.77368114242714       162.59119811951024       8.040569334518267        # O
269  269  1    227.67277058622105       162.59119811951024       8.040569334518267        # O
270  270  1    237.5712884721022        162.59119811951024       8.040569334518267        # O
271  271  1    247.47037791589608       162.59119811951024       8.040569334518267        # O
272  272  1    257.36889585911075       162.59119811951024       8.040569334518267        # O
273  273  1    9.899089443793892        162.59119811951024       8.040569334518267        # O
274  274  1    19.797607387008565       162.59119811951024       8.040569334518267        # O
275  275  1    29.69669683080246        162.59119811951024       8.040569334518267        # O
276  276  1    39.59521477401713        162.59119811951024       8.040569334518267        # O
277  277  1    49.49430421781102        162.59119811951024       8.040569334518267        # O
278  278  1    59.39282210369216        162.59119811951024       8.040569334518267        # O
279  279  1    69.29191154748605        162.59119811951024       8.040569334518267        # O
280  280  1    79.19042949070072        162.59119811951024       8.040569334518267        # O
281  281  1    89.08951893449462        162.59119811951024       8.040569334518267        # O
282  282  1    98.98803687770928        162.59119811951024       8.040569334518267        # O
283  283  1    108.88712632150317       162.59119811951024       8.040569334518267        # O
284  284  1    118.78564426471786       162.59119811951024       8.040569334518267        # O
285  285  1    128.68473370851174       162.59119811951024       8.040569334518267        # O
286  286  1    133.63399265145233       165.46891842194398       8.040569334518267        # O
287  287  1    143.532510594667         165.46891842194398       8.040569334518267        # O
288  288  1    153.43160003846089       165.46891842194398       8.040569334518267        # O
289  289  1    163.33011798167556       165.46891842194398       8.040569334518267        # O
290  290  1    173.22920742546947       165.46891842194398       8.040569334518267        # O
291  291  1    183.1277253113506        165.46891842194398       8.040569334518267        # O
292  292  1    193.0268147551445        165.46891842194398       8.040569334518267        # O
293  293  1    202.92533269835914       165.46891842194398       8.040569334518267        # O
294  294  1    212.82442214215303       165.46891842194398       8.040569334518267        # O
295  295  1    222.72294008536772       165.46891842194398       8.040569334518267        # O
296  296  1    232.6220295291616        165.46891842194398       8.040569334518267        # O
297  297  1    242.52054747237628       165.46891842194398       8.040569334518267        # O
298  298  1    252.4196369161702        165.46891842194398       8.040569334518267        # O
299  299  1    4.949258942940573        165.46891842194398       8.040569334518267        # O
300  300  1    14.848348386734466       165.46891842194398       8.040569334518267        # O
301  301  1    24.746866329949135       165.46891842194398       8.040569334518267        # O
302  302  1    34.645955773743026       165.46891842194398       8.040569334518267        # O
303  303  1    44.544473716957704       165.46891842194398       8.040569334518267        # O
304  304  1    54.44356316075159        165.46891842194398       8.040569334518267        # O
305  305  1    64.34208110396627        165.46891842194398       8.040569334518267        # O
306  306  1    74.24117054776015        165.46891842194398       8.040569334518267        # O
307  307  1    84.13968849097482        165.46891842194398       8.040569334518267        # O
308  308  1    94.0387778774352         165.46891842194398       8.040569334518267        # O
309  309  1    103.93729582064987       165.46891842194398       8.040569334518267        # O
310  310  1    113.83638526444375       165.46891842194398       8.040569334518267        # O
311  311  1    123.73490320765843       165.46891842194398       8.040569334518267        # O
312  312  1    133.63399265145233       171.2243590268115        8.040569334518267        # O
313  313  1    143.532510594667         171.2243590268115        8.040569334518267        # O
314  314  1    153.43160003846089       171.2243590268115        8.040569334518267        # O