LAMMPS data file via write_data, version 23 Jun 2022, timestep = 196629

1130 atoms
2 atom types
2712 bonds
2 bond types

0 164.5690854279416 xlo xhi
0 142.202191750689 ylo yhi
-0.5 0.5 zlo zhi

Masses

1 28.1
2 32.01

Pair Coeffs # lj/cut

1 0.1 4.421
2 0.1 4.421

Bond Coeffs # harmonic

1 1.001 4.96523
2 1.001 2.86668

Atoms # molecular

806 806 1 3.118410049199281 0.49577526245944403 0 0 -8 5
241 241 2 5.874414814216383 1.7535415659272104 0 0 -1 5
807 807 1 8.365782044858298 0.005742607503141467 0 0 2 5
242 242 2 16.348230592662862 0.7175202207275069 0 0 -2 5
833 833 1 26.798476659176703 3.366240183812065 0 0 0 5
243 243 2 26.771069071686888 0.383676555073448 0 0 -8 5
244 244 2 37.12329994352272 1.3204893176362411 0 0 0 5
814 814 1 44.76879611051686 1.0075466627667593 0 0 -3 5
245 245 2 47.19644609507941 2.6342335806500685 0 0 0 5
815 815 1 49.82518772388936 1.352081501402298 0 0 1 5
816 816 1 54.90927820250041 1.3863920507039864 0 0 -3 5
246 246 2 57.43065322109495 2.8601817505746285 0 0 0 5
817 817 1 59.99811257042152 1.4692224245350127 0 0 -1 5
818 818 1 65.02523366847643 0.4720322469450144 0 0 -7 5
819 819 1 70.13244775364888 1.7221061977870078 0 0 -1 5
820 820 1 75.17193381431328 3.3717228071619854 0 0 -1 5
821 821 1 80.34103562037566 2.0219297425160776 0 0 1 5
248 248 2 82.94016821885236 0.2898589664402459 0 0 -2 5
822 822 1 85.46990921216816 2.1250038336609833 0 0 0 5
791 791 1 90.46202089770583 1.84208358632276 0 0 -1 5
792 792 1 95.44790878966606 1.2312174435200522 0 0 -1 5
234 234 2 97.7891406524754 3.0663657124649926 0 0 0 5
793 793 1 100.51282198494356 1.851284005607031 0 0 5 5
218 218 2 103.07846932046408 0.2547063291185664 0 0 1 5
794 794 1 105.6843842901949 1.8086263539908558 0 0 0 5
795 795 1 110.90258008649884 1.951681099942489 0 0 4 5
797 797 1 120.88382937530845 2.07941893017133 0 0 1 5
798 798 1 125.86976122065676 3.1820821566235686 0 0 -3 5
799 799 1 131.01175104541727 1.6911151549355032 0 0 -2 5
800 800 1 136.23058922621166 1.5511990044145845 0 0 -2 5
221 221 2 133.58050476885353 0.1346703593490064 0 0 1 5
238 238 2 138.83579291131758 3.0692956487295424 0 0 -1 5
801 801 1 141.46837703593192 1.5921239015616775 0 0 1 5
802 802 1 146.7221174280066 1.5047197412141344 0 0 -1 5
222 222 2 144.06956364906324 0.04000269992033512 0 0 -1 5
239 239 2 149.38014906130786 2.9681045576916842 0 0 -2 5
803 803 1 151.97063968188868 1.387736996698591 0 0 0 5
804 804 1 157.2189809007584 1.2783462281259825 0 0 -2 5
240 240 2 159.9036297501738 2.72428362073406 0 0 -1 5
805 805 1 162.44542326116493 1.0223063907535592 0 0 -1 5
831 831 1 5.930615125445745 4.788875260218704 0 0 0 5
832 832 1 16.446652375737347 3.7090737980733337 0 0 0 5
258 258 2 16.36973244252701 6.680945787760937 0 0 0 5
259 259 2 26.635618917970273 6.311317090254231 0 0 0 5
834 834 1 36.93362725285748 4.406060165391138 0 0 0 5
835 835 1 46.85116351673541 5.536274078747353 0 0 0 5
836 836 1 57.37306640003793 5.7778978013712505 0 0 0 5
231 231 2 72.2157552212678 3.886001376575517 0 0 1 5
837 837 1 71.33357747926497 6.746369220077988 0 0 0 5
232 232 2 78.11251797020401 4.11489039190039 0 0 1 5
233 233 2 88.09428968714701 3.739397945919981 0 0 0 5
823 823 1 88.80777084143011 6.745731051840646 0 0 0 5
824 824 1 97.2472317161432 5.999520005828845 0 0 0 5
235 235 2 108.22175380850132 3.5857868385304528 0 0 -1 5
825 825 1 107.72340556711737 6.691511100263105 0 0 0 5
826 826 1 122.49851939150007 7.099638840304756 0 0 0 5
236 236 2 123.0435335787832 4.152578260116179 0 0 -1 5
237 237 2 128.78557908278998 3.6341578321772823 0 0 -1 5
827 827 1 129.42778274453286 6.503214362059428 0 0 0 5
828 828 1 138.74211280619804 6.084466494695857 0 0 0 5
829 829 1 149.43621657208917 6.00306672788443 0 0 0 5
830 830 1 159.913219351708 5.784914844182319 0 0 0 5
855 855 1 3.431612255224299 9.531554927427653 0 0 0 5
257 257 2 5.950650074901547 7.824612901471583 0 0 0 5
856 856 1 8.682453458527823 9.133873069269116 0 0 0 5
274 274 2 11.515869333446119 10.104146609591655 0 0 0 5
857 857 1 13.80077780347901 8.177898215227774 0 0 0 5
858 858 1 18.93096896615436 8.184309179873917 0 0 0 5
859 859 1 23.984933128459343 7.593577195613594 0 0 0 5
275 275 2 21.632701974335042 9.360717035291739 0 0 0 5
860 860 1 29.00253018567186 8.068285128448975 0 0 0 5
276 276 2 31.22035161714987 10.08809700390899 0 0 0 5
861 861 1 33.99346980674046 8.895570570539652 0 0 0 5
260 260 2 36.702966625107074 7.477042564825392 0 0 0 5
862 862 1 39.09571900940887 9.389565158792887 0 0 0 5
863 863 1 44.182053966187034 9.925095967614961 0 0 0 5
261 261 2 46.741038578592054 8.471896135037397 0 0 0 5
864 864 1 49.35449207076971 9.813319282057906 0 0 0 5
865 865 1 54.54353521437056 9.937893585049139 0 0 0 5
262 262 2 57.20702632485781 8.7050549837878 0 0 0 5
866 866 1 59.71039546632134 10.236225822681472 0 0 0 5
263 263 2 71.71764039026412 9.711423130709026 0 0 0 5
869 869 1 74.61026793299936 10.469161080359052 0 0 0 5
838 838 1 78.49845871131637 7.129161331434715 0 0 0 5
264 264 2 77.58123145657146 10.00515612961141 0 0 0 5
249 249 2 90.25776213377313 9.520103419532582 0 0 0 5
841 841 1 93.36622882364202 9.45008036841875 0 0 0 5
250 250 2 96.37501298058366 8.904884329001433 0 0 0 5
843 843 1 103.82701113416456 10.484184369565511 0 0 0 5
251 251 2 106.77472674122194 9.653007606601316 0 0 0 5
269 269 2 123.23097627068299 10.012704318989554 0 0 0 5
847 847 1 126.19505241606261 10.407575649448336 0 0 0 5
253 253 2 128.93434842890204 9.380537178139567 0 0 0 5
254 254 2 138.87652902640846 9.089513265218336 0 0 0 5
850 850 1 141.6032293189032 10.34346746236787 0 0 0 5
851 851 1 146.8331278131784 10.57084628662188 0 0 0 5
255 255 2 149.4606173869126 9.041634470013074 0 0 0 5
852 852 1 152.10778256736043 10.536303453138597 0 0 0 5
853 853 1 157.39206725438365 10.560202714062056 0 0 0 5
256 256 2 159.96572298957165 8.860161451195198 0 0 0 5
854 854 1 162.73271265727027 10.194802330183323 0 0 0 5
273 273 2 0.9873623859810113 11.373718470974541 0 -1 0 5
880 880 1 12.194406333424814 13.016114488164975 0 0 0 5
881 881 1 22.11920372814756 12.26494847087668 0 0 0 5
882 882 1 30.40940192708526 12.998672648571938 0 0 0 5
277 277 2 41.48287040587861 11.261837201352433 0 0 0 5
278 278 2 51.91625784515866 11.218534088050832 0 0 0 5
884 884 1 51.773613567849935 14.131873892481996 0 0 0 5
279 279 2 61.32019277147185 12.706323442491707 0 0 0 5
867 867 1 64.27354934408778 12.843801239509629 0 0 0 5
868 868 1 69.44555040790793 11.677137701414349 0 0 0 5
280 280 2 67.17079824853734 13.66391701204955 0 0 0 5
870 870 1 79.39139846802084 12.422598244444131 0 0 0 5
840 840 1 88.84422929566077 12.318011457250451 0 0 0 5
842 842 1 98.64258798279342 10.951681086745632 0 0 0 5
267 267 2 101.38663405158356 12.311770613724104 0 0 0 5
844 844 1 108.42903597111648 12.249519461982208 0 0 0 5
846 846 1 121.40195168881966 12.408679587363318 0 0 0 5
848 848 1 131.3301214091737 11.054213752736688 0 0 0 5
270 270 2 133.93365010006232 12.479128148049748 0 0 0 5
849 849 1 136.45199903221769 10.875114100439914 0 0 0 5
271 271 2 144.14671158194236 11.936200464459922 0 0 0 5
272 272 2 154.7325953649212 12.119638165429537 0 0 0 5
879 879 1 1.3551713950868745 14.41114818781389 0 -4 0 5
288 288 2 2.169859286051431 17.326178285302493 0 -6 0 5
903 903 1 10.288022628086457 17.709974959794856 0 0 0 5
289 289 2 12.706217497367616 15.960202289058062 0 0 0 5
904 904 1 15.453856277535035 17.148437379556473 0 0 0 5
905 905 1 20.709816483607504 17.1212748553472 0 0 0 5
290 290 2 22.962551534296622 15.132947169258761 0 0 0 5
906 906 1 25.91753656691199 15.690109974824178 0 0 0 5
291 291 2 28.961420564916413 15.681682233665795 0 0 0 5
883 883 1 41.499185581700345 14.295335867878007 0 0 0 5
292 292 2 41.97715391819928 17.2877437971035 0 0 0 5
293 293 2 52.2575404432798 17.02407646636735 0 0 0 5
912 912 1 55.10698629153667 17.747651727983683 0 0 0 5
310 310 2 58.021066991183396 17.549261360098345 0 0 0 5
885 885 1 59.59805751491181 15.094870395692743 0 0 0 5
886 886 1 67.65634132120525 16.63255157600169 0 0 0 5
871 871 1 80.31078552662186 17.71466533462851 0 0 0 5
265 265 2 81.18813550082871 14.839413217933988 0 0 0 5
839 839 1 84.15433920879963 14.429303277989405 0 0 0 5
266 266 2 87.15610515047466 14.924463226578672 0 0 0 5
873 873 1 101.8361411758643 15.344128737992285 0 0 0 5
891 891 1 106.47095148502778 17.15196911098392 0 0 0 5
268 268 2 108.92244045149206 15.287047445751934 0 0 0 5
874 874 1 111.79658902143086 16.407344491376634 0 0 0 5
283 283 2 114.66055288459053 17.483398057842756 0 0 0 5
845 845 1 117.12086841637527 15.696792688375181 0 0 0 5
252 252 2 120.0882247991627 15.135132462887434 0 0 0 5
875 875 1 121.80667921533171 17.60410435306988 0 0 0 5
876 876 1 133.61714149552878 15.442902105634444 0 0 0 5
877 877 1 143.77200822590896 14.918966199398405 0 0 0 5
878 878 1 154.49102571547408 15.190014626731342 0 0 0 5
901 901 1 0.41961177881087913 19.79098011809881 0 1 0 5
902 902 1 5.11408315539019 17.916638832603724 0 0 0 5
305 305 2 7.757046391883771 19.239653926171364 0 0 0 5
306 306 2 18.088407357986217 18.612016862722335 0 0 0 5
907 907 1 30.470773822934916 18.33193179321198 0 0 0 5
307 307 2 31.869723846156784 21.0313814015855 0 0 0 5
908 908 1 34.89263007630545 21.264268094734565 0 0 0 5
909 909 1 39.70321495425596 19.26938175655538 0 0 0 5
910 910 1 44.72819788059951 18.530137969755838 0 0 0 5
309 309 2 47.24611934032222 20.1551331587528 0 0 0 5
911 911 1 49.911908329649386 18.80058898659063 0 0 0 5
913 913 1 59.6803908348522 19.943338536407744 0 0 0 5
914 914 1 64.67828411708291 20.824764847322 0 0 0 5
295 295 2 67.38943785993125 19.601622861610803 0 0 0 5
296 296 2 80.91441449699916 20.667885661781185 0 0 0 5
918 918 1 83.85707965133007 21.272560104043535 0 0 0 5
281 281 2 86.88777249453658 20.95402792558404 0 0 0 5
872 872 1 87.7280357284816 17.970755621829014 0 0 0 5
299 299 2 103.47973939799657 17.979142941975706 0 0 0 5
890 890 1 102.34871025922662 20.921161250299587 0 0 0 5
892 892 1 115.3411184564099 20.448031470136016 0 0 0 5
284 284 2 122.51278209680225 20.534023410955967 0 0 0 5
895 895 1 130.60342794088498 19.874507275859543 0 0 0 5
285 285 2 133.21608650108845 18.404520556504206 0 0 0 5
896 896 1 135.78620948984485 19.912239622291057 0 0 0 5
302 302 2 138.4841620302602 21.163474360406287 0 0 0 5
286 286 2 143.48499131158516 17.893881498361623 0 0 0 5
897 897 1 140.92781404130412 19.446864772723238 0 0 0 5
898 898 1 146.0366543812063 19.428242917480198 0 0 0 5
303 303 2 148.5990412223237 20.936497258737482 0 0 0 5
899 899 1 151.14403863093017 19.376668279318118 0 0 0 5
287 287 2 153.92270815541283 18.181191156372392 0 0 0 5
900 900 1 156.05485457183516 20.32770548038869 0 0 0 5
927 927 1 7.822423053818964 22.19240692915002 0 0 0 5
928 928 1 18.0705167961588 21.623540865383323 0 0 0 5
322 322 2 18.223274741463563 24.62711277955969 0 0 0 5
929 929 1 30.308314526899554 23.62939788112662 0 0 0 5
308 308 2 37.88172288017799 21.667109535089946 0 0 0 5
930 930 1 39.12383511739287 24.413376465867678 0 0 0 5
931 931 1 47.22380315469799 23.14738404166559 0 0 0 5
294 294 2 61.92504349630526 21.806287417940272 0 0 0 5
932 932 1 61.10658046317104 24.608116024167394 0 0 0 5
915 915 1 69.73008320731051 21.442834672231886 0 0 0 5
311 311 2 70.96490364964755 24.169756359422244 0 0 0 5
916 916 1 73.92557254182329 24.688126519877315 0 0 0 5
917 917 1 78.88442694231469 22.90918686470007 0 0 0 5
887 887 1 88.41716664215757 23.6530768561795 0 0 0 5
282 282 2 101.32824461783352 23.914539592565855 0 0 0 5
300 300 2 117.09162282485894 22.939011483470434 0 0 0 5
893 893 1 120.07927658735247 22.3394800247496 0 0 0 5
894 894 1 125.43807939554635 21.35496032515575 0 0 0 5
301 301 2 128.42083905923167 21.989253866142967 0 0 0 5
923 923 1 129.40658019636487 24.859118030486613 0 0 0 5
924 924 1 138.4590780947692 24.14458342621444 0 0 0 5
925 925 1 148.36500905739177 23.910775409279555 0 0 0 5
320 320 2 157.65290120286764 22.876688391865486 0 0 0 5
926 926 1 160.6516407328075 22.674094292528196 0 0 0 5
304 304 2 163.66239342340236 22.510440095911722 0 0 0 5
336 336 2 2.4895469654007414 27.490918550802938 0 -3 0 5
949 949 1 0.6121107423143994 25.124178857421096 0 4 0 5
950 950 1 5.389288007833696 26.69489232649005 0 0 0 5
321 321 2 7.908871599731187 25.1451238042612 0 0 0 5
951 951 1 10.564665637866725 26.443933241773788 0 0 0 5
337 337 2 13.178087643236275 27.880262347802212 0 0 0 5
952 952 1 15.744209785590865 26.335870297292328 0 0 0 5
953 953 1 20.949857803643273 25.892022512927053 0 0 0 5
338 338 2 23.30356811616663 27.742652525817107 0 0 0 5
954 954 1 26.19497234582579 26.93457501453245 0 0 0 5
323 323 2 29.180382113614552 26.435438340526083 0 0 0 5
324 324 2 40.76504605993972 26.919434361031485 0 0 0 5
957 957 1 43.74420055015541 26.734107838079588 0 0 0 5
325 325 2 46.66092625607298 26.088209650764806 0 0 0 5
958 958 1 48.73648653761662 28.258164423809625 0 0 0 5
326 326 2 61.18524451730327 27.55600072147664 0 0 0 5
961 961 1 64.01153502895568 28.41872458518065 0 0 0 5
933 933 1 68.92037468433146 26.352923187615144 0 0 0 5
312 312 2 76.9247163743607 25.25380338897188 0 0 0 5
934 934 1 77.90182892340435 28.148987737171254 0 0 0 5
297 297 2 89.93019425512914 26.385521535814103 0 0 0 5
888 888 1 92.99635758315688 26.066510494840454 0 0 0 5
298 298 2 95.93761677888524 26.820513626138382 0 0 0 5
889 889 1 98.38776678430737 24.98834800526546 0 0 0 5
921 921 1 103.26931185259478 26.344238838395835 0 0 0 5
922 922 1 115.91883656308335 25.768975885569024 0 0 0 5
317 317 2 131.19143700259957 27.25490612935667 0 0 0 5
944 944 1 134.12487233263545 26.777622571231063 0 0 0 5
318 318 2 137.08543368260206 26.77593936783431 0 0 0 5
319 319 2 148.7835266415438 26.85482165877398 0 0 0 5
947 947 1 151.660312536516 27.54249560884667 0 0 0 5
335 335 2 154.58348441807314 27.99212992540254 0 0 0 5
948 948 1 156.33464293719186 25.58397258117365 0 0 0 5
973 973 1 1.7587408193780003 30.431072933997324 0 -5 0 5
974 974 1 12.969155483017516 30.861624599342996 0 0 0 5
975 975 1 22.549712177435797 30.631369929530695 0 0 0 5
955 955 1 31.115657679110534 28.756474166781008 0 0 0 5
352 352 2 32.350408333036484 31.49971945069289 0 0 0 5
956 956 1 39.62592763342024 29.684481018208253 0 0 0 5
340 340 2 50.48159163281835 30.735677417130216 0 0 0 5
959 959 1 53.5111282453892 30.636680447980925 0 0 0 5
960 960 1 58.72510427024021 29.212950922264497 0 0 0 5
341 341 2 56.47056358092054 31.20913189644622 0 0 0 5
342 342 2 66.94519526530333 28.526485636587946 0 0 0 5
962 962 1 68.02607276655962 31.2441065699103 0 0 0 5
328 328 2 78.23338985644956 31.1558271574324 0 0 0 5
919 919 1 88.84717564186494 29.32192195791598 0 0 0 5
920 920 1 96.11872766366167 29.83980317647047 0 0 0 5
315 315 2 104.42287511576016 29.135497380276295 0 0 0 5
938 938 1 102.73927108749751 31.616923470383735 0 0 0 5
939 939 1 107.33568600400966 29.865905371920626 0 0 0 5
331 331 2 109.79922353027892 31.64606909990019 0 0 0 5
316 316 2 115.18946762946904 28.742291502552597 0 0 0 5
940 940 1 112.4688628346588 30.141557499392466 0 0 0 5
941 941 1 117.53320391011218 30.658458553512094 0 0 0 5
943 943 1 130.38486818782573 30.129462208050864 0 0 0 5
945 945 1 138.44141149355045 29.41668126327596 0 0 0 5
946 946 1 146.83371484416887 29.107452483651123 0 0 0 5
347 347 2 145.62123435977918 31.88193748432897 0 0 0 5
972 972 1 155.26874702747406 30.885463119537352 0 0 0 5
349 349 2 1.5813790618771972 33.50168262031658 0 -2 0 5
991 991 1 4.258108447083357 35.01978305248494 0 0 0 5
992 992 1 9.624648482377312 34.90571150333934 0 0 0 5
350 350 2 12.432973050793487 33.81666955373906 0 0 0 5
994 994 1 20.032320951219614 35.25755834632868 0 0 0 5
351 351 2 22.49043080196713 33.59142334737111 0 0 0 5
995 995 1 25.208981243922754 34.75696539888173 0 0 0 5
996 996 1 30.295222074758918 33.677672205141185 0 0 0 5
364 364 2 28.032132910889967 35.545071118475946 0 0 0 5
976 976 1 35.282253693290514 32.21257654964592 0 0 0 5
339 339 2 38.32696749527744 32.42732032787033 0 0 0 5
997 997 1 40.069806436279265 34.95044578272025 0 0 0 5
977 977 1 49.119326517592256 33.433039154950244 0 0 0 5
978 978 1 57.32712265267572 34.07935073352013 0 0 0 5
327 327 2 68.31029124894674 34.15044364042969 0 0 0 5
963 963 1 71.07723639796265 35.10605277655311 0 0 0 5
964 964 1 75.70507870764821 32.766753446228826 0 0 0 5
343 343 2 74.01468227275474 35.1686091899279 0 0 0 5
965 965 1 80.7351098792998 32.849192509075245 0 0 0 5
329 329 2 82.59228517778948 35.407431294734195 0 0 0 5
935 935 1 85.84425435477381 34.194227572653226 0 0 0 5
313 313 2 88.86693912315941 32.56203379081174 0 0 0 5
936 936 1 92.17698257796418 33.24264722443672 0 0 0 5
314 314 2 95.48016658973293 32.88348585254675 0 0 0 5
937 937 1 98.47832882169021 34.289903595531946 0 0 0 5
330 330 2 101.77525939705907 34.56077740165361 0 0 0 5
968 968 1 109.29935395684504 34.67325121631162 0 0 0 5
332 332 2 118.8576352244412 33.31863048866598 0 0 0 5
942 942 1 121.800416129678 33.780804756797984 0 0 0 5
333 333 2 124.407820788342 35.25004082815749 0 0 0 5
970 970 1 127.18781023107637 34.13492660193992 0 0 0 5
346 346 2 130.0436034265211 33.13065084621781 0 0 0 5
985 985 1 132.47126826505777 34.95013026338774 0 0 0 5
334 334 2 139.58524852565904 32.211389900553925 0 0 0 5
986 986 1 137.64686572884668 34.556854265771335 0 0 0 5
971 971 1 142.61992088164877 32.32589772294577 0 0 0 5
987 987 1 147.53338739885797 34.227553746842965 0 0 0 5
988 988 1 152.58978241140775 35.41793883225761 0 0 0 5
348 348 2 155.23730808311058 33.91033280779437 0 0 0 5
989 989 1 158.00705686540036 35.15490397082374 0 0 0 5
990 990 1 163.43165548521722 34.96594975049905 0 0 0 5
362 362 2 6.976633870806547 36.39114929016806 0 0 0 5
993 993 1 14.857397213122397 35.592223004457736 0 0 0 5
363 363 2 17.54122621476146 36.944695724338644 0 0 0 5
1012 1012 1 28.54612530809905 38.426999435361836 0 0 0 5
365 365 2 42.05188895248952 37.333269599243906 0 0 0 5
998 998 1 45.10506491136663 36.84972400365321 0 0 0 5
353 353 2 48.10783962457933 36.29335121867459 0 0 0 5
999 999 1 50.31017274866984 38.39571092477568 0 0 0 5
1000 1000 1 55.591342699742455 38.8071533488488 0 0 0 5
354 354 2 58.01193450058707 37.00194896519207 0 0 0 5
1001 1001 1 60.94225083232591 37.75402749207856 0 0 0 5
979 979 1 65.83078134990971 35.70845471764055 0 0 0 5
367 367 2 63.930446469511914 38.001303778204054 0 0 0 5
980 980 1 75.37437562864345 37.767326136623126 0 0 0 5
966 966 1 80.31027098961597 38.0132994361462 0 0 0 5
967 967 1 104.4944219529832 36.456156932144985 0 0 0 5
344 344 2 107.70272769252267 37.430589221812134 0 0 0 5
969 969 1 116.95473310585865 35.595296357651925 0 0 0 5
345 345 2 116.79161228301089 38.480817514460455 0 0 0 5
984 984 1 124.14302153895954 38.215689930154724 0 0 0 5
359 359 2 135.18108959492633 36.39775539838661 0 0 0 5
360 360 2 149.6818386730678 36.38877589227456 0 0 0 5
361 361 2 160.75781346045449 36.467983795696796 0 0 0 5
1010 1010 1 7.192567794638692 39.41369074941332 0 0 0 5
373 373 2 7.249117730538278 42.44055137621344 0 0 0 5
1011 1011 1 17.68661874504776 39.94983260299859 0 0 0 5
375 375 2 28.636182044655726 41.379181653497405 0 0 0 5
1030 1030 1 31.379083989565217 42.512613937208066 0 0 0 5
1013 1013 1 41.05766719265468 40.26114683006268 0 0 0 5
366 366 2 52.836688544340625 40.08443952555315 0 0 0 5
1002 1002 1 65.51495666020206 40.525465555332154 0 0 0 5
356 356 2 77.4572162839903 39.998431488781705 0 0 0 5
981 981 1 109.69463984231685 40.16659010180508 0 0 0 5
357 357 2 112.30346389260465 42.41114080047362 0 0 0 5
982 982 1 114.58010987809881 40.34404929629123 0 0 0 5
983 983 1 119.42256760947951 39.666532927659155 0 0 0 5
358 358 2 122.2158963844978 40.35348816278266 0 0 0 5
1007 1007 1 135.35322268327172 39.4832494740586 0 0 0 5
370 370 2 136.07496711852065 42.49534629305683 0 0 0 5
1021 1021 1 144.50304874426274 42.5784409338918 0 0 0 5
1008 1008 1 148.74679582383297 39.31056862040602 0 0 0 5
371 371 2 147.50961643030948 42.107094460794194 0 0 0 5
1009 1009 1 160.57637369321202 39.50586824184674 0 0 0 5
372 372 2 160.8529712044435 42.5102126184769 0 0 0 5
383 383 2 1.7344162768970746 44.77534238734286 0 1 0 5
1025 1025 1 4.510059513386648 43.73463166684481 0 0 0 5
1026 1026 1 9.852682166083106 44.015377909509816 0 0 0 5
384 384 2 12.376574951889667 45.784752592560594 0 0 0 5
1027 1027 1 15.221486012923823 44.56332973805783 0 0 0 5
374 374 2 17.88408944421614 43.00015111698755 0 0 0 5
1028 1028 1 20.766224275629988 44.098904880978516 0 0 0 5
385 385 2 23.73613087633898 44.74740555543956 0 0 0 5
1029 1029 1 26.01344748045762 42.76982265244851 0 0 0 5
386 386 2 33.925643317145635 44.02394958873278 0 0 0 5
1031 1031 1 36.76767680061926 43.17711565842449 0 0 0 5
376 376 2 39.815168426852104 43.07117312730851 0 0 0 5
1032 1032 1 41.30101731066283 45.762051594423816 0 0 0 5
1014 1014 1 52.64775185685491 43.11216721403464 0 0 0 5
377 377 2 52.960406631261975 46.1359679040078 0 0 0 5
1015 1015 1 65.31368947425507 45.35046648614383 0 0 0 5
355 355 2 67.11298283456335 43.0153152941414 0 0 0 5
1003 1003 1 70.05646828179833 43.38736392189561 0 0 0 5
368 368 2 72.73886954828528 45.01542510487929 0 0 0 5
1004 1004 1 75.33027475485947 42.74940175762312 0 0 0 5
1005 1005 1 113.95644450640177 45.44375619441181 0 0 0 5
369 369 2 121.91364383045665 46.09699271193602 0 0 0 5
1006 1006 1 122.5762567357016 43.209067661486905 0 0 0 5
1019 1019 1 134.26768306653815 45.02180638145954 0 0 0 5
1020 1020 1 139.1012219519315 42.96305641089195 0 0 0 5
381 381 2 141.89000951446604 44.03855737249098 0 0 0 5
1022 1022 1 149.18147045604132 44.65050548828913 0 0 0 5
1023 1023 1 158.68114661888322 44.62494493201739 0 0 0 5
1024 1024 1 163.7563903379243 43.27886245657355 0 0 0 5
1041 1041 1 1.1662597748097328 47.666786981062714 0 -6 0 5
1042 1042 1 11.900719663455163 48.83116670113329 0 0 0 5
1043 1043 1 24.915260324056106 47.51998609674129 0 0 0 5
1044 1044 1 33.44633447794274 46.92841244259954 0 0 0 5
397 397 2 32.537025453648184 49.736563749004716 0 0 0 5
398 398 2 42.27688499303353 48.70762305909367 0 0 0 5
1045 1045 1 45.30702341823133 49.429148441984324 0 0 0 5
1033 1033 1 50.55096545479992 48.00950899097189 0 0 0 5
1034 1034 1 55.82956353109037 47.145237659882945 0 0 0 5
388 388 2 58.263246211033064 48.90037121638402 0 0 0 5
1035 1035 1 61.23212027611443 48.423976502343 0 0 0 5
378 378 2 64.20819668610773 48.09774653186025 0 0 0 5
1016 1016 1 71.50080020085588 48.20753028908706 0 0 0 5
379 379 2 116.11001994293812 48.13474103097349 0 0 0 5
1017 1017 1 119.06902115178995 47.01515017672299 0 0 0 5
1018 1018 1 124.46773530385843 47.62677356524814 0 0 0 5
391 391 2 126.96580526420887 49.289642787166585 0 0 0 5
1038 1038 1 129.8356169206112 48.326354925523304 0 0 0 5
380 380 2 132.8941122169245 47.81679865559114 0 0 0 5
1039 1039 1 141.9925234994831 47.00960534831756 0 0 0 5
393 393 2 150.7606442158725 47.249038016356515 0 0 0 5
1040 1040 1 153.78658169438623 46.94789060870805 0 0 0 5
382 382 2 156.8174079820688 47.03312625780184 0 0 0 5
394 394 2 0.5224809503388972 50.49355108909873 0 -3 0 5
1057 1057 1 2.8735056686400484 52.185433545655926 0 0 0 5
1058 1058 1 7.893437367246572 52.14333122879124 0 0 0 5
395 395 2 10.839131176302233 51.65592533474297 0 0 0 5
1061 1061 1 25.023709722094562 52.512448452385264 0 0 0 5
396 396 2 26.59642745399889 49.98675839721452 0 0 0 5
1062 1062 1 29.585690197669976 50.112490455428166 0 0 0 5
1063 1063 1 34.84698092357069 51.60769776914444 0 0 0 5
408 408 2 37.65487428776457 52.764161635083354 0 0 0 5
1064 1064 1 40.08434997058822 50.90174123909564 0 0 0 5
387 387 2 48.32653620986807 50.15251619818877 0 0 0 5
1065 1065 1 49.338554921772804 53.0701896161841 0 0 0 5
1046 1046 1 57.43069777300531 51.75245736670034 0 0 0 5
1036 1036 1 66.53293523203692 49.96905918002608 0 0 0 5
389 389 2 69.50654112912294 50.94208738155149 0 0 0 5
1037 1037 1 116.62232577297951 51.52773620559802 0 0 0 5
1050 1050 1 126.0477375663235 52.14452077093359 0 0 0 5
1051 1051 1 134.5949104208098 50.393454980879596 0 0 0 5
402 402 2 136.69113564610998 52.5875905397441 0 0 0 5
1052 1052 1 139.47727887302122 51.46438199958254 0 0 0 5
392 392 2 141.9751432157998 49.93589551086358 0 0 0 5
1053 1053 1 144.56180899485386 51.3036986454745 0 0 0 5
1054 1054 1 149.40244863007442 49.98249262902283 0 0 0 5
403 403 2 147.3987332653235 52.260388149210904 0 0 0 5
1055 1055 1 157.90845330936057 49.852486722110754 0 0 0 5
404 404 2 159.5497321342664 52.3490486765154 0 0 0 5
1056 1056 1 162.45670169007974 51.70642778248923 0 0 0 5
1074 1074 1 5.057254612591245 56.4955953797201 0 0 0 5
405 405 2 5.392469525780688 53.615561043458136 0 0 0 5
1059 1059 1 12.256274589543763 54.30542485160301 0 0 0 5
1060 1060 1 20.90025993133725 55.70996360522084 0 0 0 5
407 407 2 23.768564349717252 55.152182158741574 0 0 0 5
1077 1077 1 37.71838396301684 55.812878626277495 0 0 0 5
409 409 2 50.94015820440867 55.67974392895258 0 0 0 5
1066 1066 1 53.97938589547627 55.46465778200677 0 0 0 5
399 399 2 56.83483992252999 54.643015293871066 0 0 0 5
1067 1067 1 59.33575866377346 56.23875999498398 0 0 0 5
1047 1047 1 69.13411261376116 54.29095622351776 0 0 0 5
390 390 2 118.0454403010708 54.64368941004044 0 0 0 5
1048 1048 1 121.05336406746284 53.91324052611006 0 0 0 5
401 401 2 123.97914772406057 54.24397272460417 0 0 0 5
1071 1071 1 136.4933736931066 55.62122960114702 0 0 0 5
1072 1072 1 147.58905511063736 55.287683389838925 0 0 0 5
1073 1073 1 158.62021280883363 55.199496814000675 0 0 0 5
1088 1088 1 1.3764640428753265 60.119896074737674 0 -2 0 5
415 415 2 4.192020949145894 59.29293506586496 0 0 0 5
1090 1090 1 11.298519746868642 59.61200762772271 0 0 0 5
416 416 2 13.0929603558665 57.193046801843444 0 0 0 5
1075 1075 1 16.059187362127492 57.600845373955224 0 0 0 5
406 406 2 18.978244366532653 57.93072795297975 0 0 0 5
1076 1076 1 25.564645858377485 57.45091002484169 0 0 0 5
417 417 2 26.735973628810225 60.12550185061854 0 0 0 5
1093 1093 1 29.65764909075295 60.306998896379085 0 0 0 5
1094 1094 1 34.919636155395345 60.42099723705356 0 0 0 5
418 418 2 37.5615273499866 58.86512163000904 0 0 0 5
1095 1095 1 40.24863230452711 60.31184757443668 0 0 0 5
1078 1078 1 49.731818983580425 58.49242695024659 0 0 0 5
410 410 2 61.85714981165977 57.77884467469742 0 0 0 5
1068 1068 1 64.70504899160531 56.9813148235959 0 0 0 5
400 400 2 67.80394469595296 57.3634902684033 0 0 0 5
1049 1049 1 118.10598315273081 58.07273671815302 0 0 0 5
1070 1070 1 124.84722333696288 57.04912192964058 0 0 0 5
411 411 2 125.03809909382099 60.04351263187164 0 0 0 5
1082 1082 1 133.68603068638717 60.0204301976355 0 0 0 5
412 412 2 136.53480628117134 58.731787931637406 0 0 0 5
1083 1083 1 139.26446575853117 60.290814809372286 0 0 0 5
1084 1084 1 144.71266482442306 59.9209921625249 0 0 0 5
413 413 2 147.38672296374332 58.36108750553205 0 0 0 5
1085 1085 1 150.10388011438008 59.801200568833345 0 0 0 5
1086 1086 1 155.4674755887961 59.51215038423247 0 0 0 5
414 414 2 158.2276513411195 58.21876119763453 0 0 0 5
1087 1087 1 160.71689391291181 59.96389467664169 0 0 0 5
1089 1089 1 6.447751273878346 61.16042789219749 0 0 0 5
426 426 2 9.33564987144498 61.885020217071315 0 0 0 5
1091 1091 1 20.111461375449277 60.63538307729606 0 0 0 5
427 427 2 21.950276863691503 62.91811747922867 0 0 0 5
1092 1092 1 24.829767054871656 62.34453238533871 0 0 0 5
428 428 2 32.23780466751851 61.8114782568033 0 0 0 5
429 429 2 42.57957490911744 62.23140358685792 0 0 0 5
1096 1096 1 45.55655960790975 61.678028874557974 0 0 0 5
419 419 2 48.61805056218236 61.36416582768749 0 0 0 5
1097 1097 1 50.47591284479472 63.831545424504434 0 0 0 5
1079 1079 1 61.373108580531905 60.67660394278804 0 0 0 5
420 420 2 61.85808223636366 63.544903560551795 0 0 0 5
1069 1069 1 68.24698528014093 60.67798364991743 0 0 0 5
431 431 2 67.73756179448148 63.97117691641547 0 0 0 5
421 421 2 119.02074141598666 61.39729542230291 0 0 0 5
1080 1080 1 122.24028832900497 61.30427594641295 0 0 0 5
1081 1081 1 128.00278779449417 60.82582545677486 0 0 0 5
422 422 2 130.99721272525596 61.514558664830446 0 0 0 5
423 423 2 142.10531427130533 61.67184843990047 0 0 0 5
424 424 2 152.86244923838987 61.09818582722958 0 0 0 5
425 425 2 163.29340399446934 61.501880369622974 0 1 0 5
1105 1105 1 9.767927351103571 64.8517521533367 0 0 0 5
1106 1106 1 20.814402941005827 65.62485355689299 0 0 0 5
1107 1107 1 31.521178317927294 64.72623728193666 0 0 0 5
1108 1108 1 41.68247381959167 65.09319135684211 0 0 0 5
441 441 2 51.73069309627005 66.67900028552734 0 0 0 5
1109 1109 1 54.78169810146975 67.41672871763947 0 0 0 5
1098 1098 1 59.53902840892799 65.31188483277103 0 0 0 5
1099 1099 1 64.67958796478914 64.27692079422287 0 0 0 5
1110 1110 1 68.71474078646851 67.15111699445671 0 0 0 5
1100 1100 1 117.87519002290587 64.67473247456326 0 0 0 5
1101 1101 1 131.3582111563537 64.50879080572011 0 0 0 5
433 433 2 131.83199846136995 67.42665354666373 0 0 0 5
1102 1102 1 142.50105779155285 64.79641835650287 0 0 0 5
1103 1103 1 153.00922278355563 64.13402440420025 0 0 0 5
435 435 2 153.12281970954442 67.14533889046423 0 0 0 5
1104 1104 1 163.43050303789715 64.49134271032614 0 -1 0 5
436 436 2 163.61176725148266 67.48048240431247 0 1 0 5
1118 1118 1 1.656089515076037 68.96073157416468 0 0 0 5
1121 1121 1 6.928483300749086 69.34635764222013 0 0 0 5
447 447 2 4.17419216253098 70.67144027822857 0 0 0 5
437 437 2 9.60106484462505 67.88189906129429 0 0 0 5
1120 1120 1 12.275834390612399 69.32023069220153 0 0 0 5
448 448 2 14.846286820068071 70.91326012308183 0 0 0 5
1123 1123 1 17.65386361513236 69.76758482994607 0 0 0 5
438 438 2 20.424756758694603 68.58727451609091 0 0 0 5
1122 1122 1 23.07534946902521 69.99401794716113 0 0 0 5
449 449 2 25.915470910299387 71.03426178191062 0 0 0 5
1125 1125 1 28.370564621262563 69.23280242914157 0 0 0 5
439 439 2 30.9442491291848 67.66656690516666 0 0 0 5
1124 1124 1 33.60373130175435 69.0098320120981 0 0 0 5
450 450 2 36.08793897330812 70.60794634534633 0 0 0 5
1127 1127 1 38.84166025391315 69.48347995056936 0 0 0 5
440 440 2 41.48097560744521 68.06453793905355 0 0 0 5
1126 1126 1 44.194430009259534 69.30888784493538 0 0 0 5