DATA FILE Produced from netmc results (cf David Morley)
2964 atoms
9880 bonds
0 angles
0 dihedrals
0 impropers
2 atom types
0 bond types
2 bond types
0 angle types
0 dihedral types
0 improper types
0.00000 159.86680377418944 xlo xhi
0.00000 138.45955634844063 ylo yhi
0.0000 200.0000 zlo zhi

# Pair Coeffs
#
# 1  O
# 2  Si

# Bond Coeffs
# 
# 1  O-O
# 2  Si-O
# 3  O-O rep
# 4  Si-Si rep

 Masses

1 28.10000 # O 
2 32.01000 # Si

 Atoms # molecular

1    1    1    104.91239655320618       76.4412133983127         8.040569334518267        # O
2    2    1    114.9043555291259        76.4412133983127         8.040569334518267        # O
3    3    1    124.89573761511502       76.4412133983127         8.040569334518267        # O
4    4    1    134.88769659103474       76.4412133983127         8.040569334518267        # O
5    5    1    144.87907873435742       76.4412133983127         8.040569334518267        # O
6    6    1    154.8710377102771        76.4412133983127         8.040569334518267        # O
7    7    1    4.995691071661328        76.4412133983127         8.040569334518267        # O
8    8    1    14.98765004758105        76.4412133983127         8.040569334518267        # O
9    9    1    24.979032133570183       76.4412133983127         8.040569334518267        # O
10   10   1    34.9709911094899         76.4412133983127         8.040569334518267        # O
11   11   1    44.96237325281256        76.4412133983127         8.040569334518267        # O
12   12   1    54.95433222873229        76.4412133983127         8.040569334518267        # O
13   13   1    99.91670548154484        79.32578752234976        8.040569334518267        # O
14   14   1    109.90866445746458       79.32578752234976        8.040569334518267        # O
15   15   1    119.9000465434537        79.32578752234976        8.040569334518267        # O
16   16   1    129.89200557670694       79.32578752234976        8.040569334518267        # O
17   17   1    139.88338766269607       79.32578752234976        8.040569334518267        # O
18   18   1    149.8753466386158        79.32578752234976        8.040569334518267        # O
19   19   1    159.86672878193846       79.32578752234976        8.040569334518267        # O
20   20   1    9.991958975919722        79.32578752234976        8.040569334518267        # O
21   21   1    19.98334111924238        79.32578752234976        8.040569334518267        # O
22   22   1    29.9753000951621         79.32578752234976        8.040569334518267        # O
23   23   1    39.96668218115123        79.32578752234976        8.040569334518267        # O
24   24   1    49.95864115707096        79.32578752234976        8.040569334518267        # O
25   25   1    59.95002330039361        79.32578752234976        8.040569334518267        # O
26   26   1    99.91670548154484        85.09493565575686        8.040569334518267        # O
27   27   1    109.90866445746458       85.09493565575686        8.040569334518267        # O
28   28   1    119.9000465434537        85.09493565575686        8.040569334518267        # O
29   29   1    129.89200557670694       85.09493565575686        8.040569334518267        # O
30   30   1    139.88338766269607       85.09493565575686        8.040569334518267        # O
31   31   1    149.8753466386158        85.09493565575686        8.040569334518267        # O
32   32   1    159.86672878193846       85.09493565575686        8.040569334518267        # O
33   33   1    9.991958975919722        85.09493565575686        8.040569334518267        # O
34   34   1    19.98334111924238        85.09493565575686        8.040569334518267        # O
35   35   1    29.9753000951621         85.09493565575686        8.040569334518267        # O
36   36   1    39.96668218115123        85.09493565575686        8.040569334518267        # O
37   37   1    49.95864115707096        85.09493565575686        8.040569334518267        # O
38   38   1    59.95002330039361        85.09493565575686        8.040569334518267        # O
39   39   1    84.9290554339638         87.97950977979393        8.040569334518267        # O
40   40   1    94.92101440988351        87.97950977979393        8.040569334518267        # O
41   41   1    104.91239655320618       87.97950977979393        8.040569334518267        # O
42   42   1    114.9043555291259        87.97950977979393        8.040569334518267        # O
43   43   1    124.89573761511502       87.97950977979393        8.040569334518267        # O
44   44   1    134.88769659103474       87.97950977979393        8.040569334518267        # O
45   45   1    144.87907873435742       87.97950977979393        8.040569334518267        # O
46   46   1    154.8710377102771        87.97950977979393        8.040569334518267        # O
47   47   1    4.995691071661328        87.97950977979393        8.040569334518267        # O
48   48   1    14.98765004758105        87.97950977979393        8.040569334518267        # O
49   49   1    24.979032133570183       87.97950977979393        8.040569334518267        # O
50   50   1    34.9709911094899         87.97950977979393        8.040569334518267        # O
51   51   1    44.96237325281256        87.97950977979393        8.040569334518267        # O
52   52   1    54.95433222873229        87.97950977979393        8.040569334518267        # O
53   53   1    64.94571431472141        87.97950977979393        8.040569334518267        # O
54   54   1    74.93767334797465        87.97950977979393        8.040569334518267        # O
55   55   1    84.9290554339638         93.74865797053454        8.040569334518267        # O
56   56   1    94.92101440988351        93.74865797053454        8.040569334518267        # O
57   57   1    104.91239655320618       93.74865797053454        8.040569334518267        # O
58   58   1    114.9043555291259        93.74865797053454        8.040569334518267        # O
59   59   1    124.89573761511502       93.74865797053454        8.040569334518267        # O
60   60   1    134.88769659103474       93.74865797053454        8.040569334518267        # O
61   61   1    144.87907873435742       93.74865797053454        8.040569334518267        # O
62   62   1    154.8710377102771        93.74865797053454        8.040569334518267        # O
63   63   1    4.995691071661328        93.74865797053454        8.040569334518267        # O
64   64   1    14.98765004758105        93.74865797053454        8.040569334518267        # O
65   65   1    24.979032133570183       93.74865797053454        8.040569334518267        # O
66   66   1    34.9709911094899         93.74865797053454        8.040569334518267        # O
67   67   1    44.96237325281256        93.74865797053454        8.040569334518267        # O
68   68   1    54.95433222873229        93.74865797053454        8.040569334518267        # O
69   69   1    64.94571431472141        93.74865797053454        8.040569334518267        # O
70   70   1    74.93767334797465        93.74865797053454        8.040569334518267        # O
71   71   1    79.93336436230246        96.63323203723807        8.040569334518267        # O
72   72   1    89.92532333822219        96.63323203723807        8.040569334518267        # O
73   73   1    99.91670548154484        96.63323203723807        8.040569334518267        # O
74   74   1    109.90866445746458       96.63323203723807        8.040569334518267        # O
75   75   1    119.9000465434537        96.63323203723807        8.040569334518267        # O
76   76   1    129.89200557670694       96.63323203723807        8.040569334518267        # O
77   77   1    139.88338766269607       96.63323203723807        8.040569334518267        # O
78   78   1    149.8753466386158        96.63323203723807        8.040569334518267        # O
79   79   1    159.86672878193846       96.63323203723807        8.040569334518267        # O
80   80   1    9.991958975919722        96.63323203723807        8.040569334518267        # O
81   81   1    19.98334111924238        96.63323203723807        8.040569334518267        # O
82   82   1    29.9753000951621         96.63323203723807        8.040569334518267        # O
83   83   1    39.96668218115123        96.63323203723807        8.040569334518267        # O
84   84   1    49.95864115707096        96.63323203723807        8.040569334518267        # O
85   85   1    59.95002330039361        96.63323203723807        8.040569334518267        # O
86   86   1    69.94198227631334        96.63323203723807        8.040569334518267        # O
87   87   1    89.92532333822219        102.40238022797868       8.040569334518267        # O
88   88   1    99.91670548154484        102.40238022797868       8.040569334518267        # O
89   89   1    109.90866445746458       102.40238022797868       8.040569334518267        # O
90   90   1    119.9000465434537        102.40238022797868       8.040569334518267        # O
91   91   1    129.89200557670694       102.40238022797868       8.040569334518267        # O
92   92   1    139.88338766269607       102.40238022797868       8.040569334518267        # O
93   93   1    149.8753466386158        102.40238022797868       8.040569334518267        # O
94   94   1    159.86672878193846       102.40238022797868       8.040569334518267        # O
95   95   1    9.991958975919722        102.40238022797868       8.040569334518267        # O
96   96   1    19.98334111924238        102.40238022797868       8.040569334518267        # O
97   97   1    29.9753000951621         102.40238022797868       8.040569334518267        # O
98   98   1    39.96668218115123        102.40238022797868       8.040569334518267        # O
99   99   1    49.95864115707096        102.40238022797868       8.040569334518267        # O
100  100  1    59.95002330039361        102.40238022797868       8.040569334518267        # O
101  101  1    69.94198227631334        102.40238022797868       8.040569334518267        # O
102  102  1    79.93336436230246        102.40238022797868       8.040569334518267        # O
103  103  1    84.9290554339638         105.28695429468223       8.040569334518267        # O
104  104  1    94.92101440988351        105.28695429468223       8.040569334518267        # O
105  105  1    104.91239655320618       105.28695429468223       8.040569334518267        # O
106  106  1    114.9043555291259        105.28695429468223       8.040569334518267        # O
107  107  1    124.89573761511502       105.28695429468223       8.040569334518267        # O
108  108  1    134.88769659103474       105.28695429468223       8.040569334518267        # O
109  109  1    144.87907873435742       105.28695429468223       8.040569334518267        # O
110  110  1    154.8710377102771        105.28695429468223       8.040569334518267        # O
111  111  1    4.995691071661328        105.28695429468223       8.040569334518267        # O
112  112  1    14.98765004758105        105.28695429468223       8.040569334518267        # O
113  113  1    24.979032133570183       105.28695429468223       8.040569334518267        # O
114  114  1    34.9709911094899         105.28695429468223       8.040569334518267        # O
115  115  1    44.96237325281256        105.28695429468223       8.040569334518267        # O
116  116  1    54.95433222873229        105.28695429468223       8.040569334518267        # O
117  117  1    64.94571431472141        105.28695429468223       8.040569334518267        # O
118  118  1    74.93767334797465        105.28695429468223       8.040569334518267        # O
119  119  1    84.9290554339638         111.05610248542285       8.040569334518267        # O
120  120  1    94.92101440988351        111.05610248542285       8.040569334518267        # O
121  121  1    104.91239655320618       111.05610248542285       8.040569334518267        # O
122  122  1    114.9043555291259        111.05610248542285       8.040569334518267        # O
123  123  1    124.89573761511502       111.05610248542285       8.040569334518267        # O
124  124  1    134.88769659103474       111.05610248542285       8.040569334518267        # O
125  125  1    144.87907873435742       111.05610248542285       8.040569334518267        # O
126  126  1    154.8710377102771        111.05610248542285       8.040569334518267        # O
127  127  1    4.995691071661328        111.05610248542285       8.040569334518267        # O
128  128  1    14.98765004758105        111.05610248542285       8.040569334518267        # O
129  129  1    24.979032133570183       111.05610248542285       8.040569334518267        # O
130  130  1    34.9709911094899         111.05610248542285       8.040569334518267        # O
131  131  1    44.96237325281256        111.05610248542285       8.040569334518267        # O
132  132  1    54.95433222873229        111.05610248542285       8.040569334518267        # O
133  133  1    64.94571431472141        111.05610248542285       8.040569334518267        # O
134  134  1    74.93767334797465        111.05610248542285       8.040569334518267        # O
135  135  1    79.93336436230246        113.94067660945991       8.040569334518267        # O
136  136  1    89.92532333822219        113.94067660945991       8.040569334518267        # O
137  137  1    99.91670548154484        113.94067660945991       8.040569334518267        # O
138  138  1    109.90866445746458       113.94067660945991       8.040569334518267        # O
139  139  1    119.9000465434537        113.94067660945991       8.040569334518267        # O
140  140  1    129.89200557670694       113.94067660945991       8.040569334518267        # O
141  141  1    139.88338766269607       113.94067660945991       8.040569334518267        # O
142  142  1    149.8753466386158        113.94067660945991       8.040569334518267        # O
143  143  1    159.86672878193846       113.94067660945991       8.040569334518267        # O
144  144  1    9.991958975919722        113.94067660945991       8.040569334518267        # O
145  145  1    19.98334111924238        113.94067660945991       8.040569334518267        # O
146  146  1    29.9753000951621         113.94067660945991       8.040569334518267        # O
147  147  1    39.96668218115123        113.94067660945991       8.040569334518267        # O
148  148  1    49.95864115707096        113.94067660945991       8.040569334518267        # O
149  149  1    59.95002330039361        113.94067660945991       8.040569334518267        # O
150  150  1    69.94198227631334        113.94067660945991       8.040569334518267        # O
151  151  1    89.92532333822219        119.70982474286701       8.040569334518267        # O
152  152  1    99.91670548154484        119.70982474286701       8.040569334518267        # O
153  153  1    109.90866445746458       119.70982474286701       8.040569334518267        # O
154  154  1    119.9000465434537        119.70982474286701       8.040569334518267        # O
155  155  1    129.89200557670694       119.70982474286701       8.040569334518267        # O
156  156  1    139.88338766269607       119.70982474286701       8.040569334518267        # O
157  157  1    149.8753466386158        119.70982474286701       8.040569334518267        # O
158  158  1    159.86672878193846       119.70982474286701       8.040569334518267        # O
159  159  1    9.991958975919722        119.70982474286701       8.040569334518267        # O
160  160  1    19.98334111924238        119.70982474286701       8.040569334518267        # O
161  161  1    29.9753000951621         119.70982474286701       8.040569334518267        # O
162  162  1    39.96668218115123        119.70982474286701       8.040569334518267        # O
163  163  1    49.95864115707096        119.70982474286701       8.040569334518267        # O
164  164  1    59.95002330039361        119.70982474286701       8.040569334518267        # O
165  165  1    69.94198227631334        119.70982474286701       8.040569334518267        # O
166  166  1    79.93336436230246        119.70982474286701       8.040569334518267        # O
167  167  1    84.9290554339638         122.59439886690407       8.040569334518267        # O
168  168  1    94.92101440988351        122.59439886690407       8.040569334518267        # O
169  169  1    104.91239655320618       122.59439886690407       8.040569334518267        # O
170  170  1    114.9043555291259        122.59439886690407       8.040569334518267        # O
171  171  1    124.89573761511502       122.59439886690407       8.040569334518267        # O
172  172  1    134.88769659103474       122.59439886690407       8.040569334518267        # O
173  173  1    144.87907873435742       122.59439886690407       8.040569334518267        # O
174  174  1    154.8710377102771        122.59439886690407       8.040569334518267        # O
175  175  1    4.995691071661328        122.59439886690407       8.040569334518267        # O
176  176  1    14.98765004758105        122.59439886690407       8.040569334518267        # O
177  177  1    24.979032133570183       122.59439886690407       8.040569334518267        # O
178  178  1    34.9709911094899         122.59439886690407       8.040569334518267        # O
179  179  1    44.96237325281256        122.59439886690407       8.040569334518267        # O
180  180  1    54.95433222873229        122.59439886690407       8.040569334518267        # O
181  181  1    64.94571431472141        122.59439886690407       8.040569334518267        # O
182  182  1    74.93767334797465        122.59439886690407       8.040569334518267        # O
183  183  1    84.9290554339638         128.3635470576447        8.040569334518267        # O
184  184  1    94.92101440988351        128.3635470576447        8.040569334518267        # O
185  185  1    104.91239655320618       128.3635470576447        8.040569334518267        # O
186  186  1    114.9043555291259        128.3635470576447        8.040569334518267        # O
187  187  1    124.89573761511502       128.3635470576447        8.040569334518267        # O
188  188  1    134.88769659103474       128.3635470576447        8.040569334518267        # O
189  189  1    144.87907873435742       128.3635470576447        8.040569334518267        # O
190  190  1    154.8710377102771        128.3635470576447        8.040569334518267        # O
191  191  1    4.995691071661328        128.3635470576447        8.040569334518267        # O
192  192  1    14.98765004758105        128.3635470576447        8.040569334518267        # O
193  193  1    24.979032133570183       128.3635470576447        8.040569334518267        # O
194  194  1    34.9709911094899         128.3635470576447        8.040569334518267        # O
195  195  1    44.96237325281256        128.3635470576447        8.040569334518267        # O
196  196  1    54.95433222873229        128.3635470576447        8.040569334518267        # O
197  197  1    64.94571431472141        128.3635470576447        8.040569334518267        # O
198  198  1    74.93767334797465        128.3635470576447        8.040569334518267        # O
199  199  1    79.93336436230246        131.24812112434824       8.040569334518267        # O
200  200  1    89.92532333822219        131.24812112434824       8.040569334518267        # O
201  201  1    99.91670548154484        131.24812112434824       8.040569334518267        # O
202  202  1    109.90866445746458       131.24812112434824       8.040569334518267        # O
203  203  1    119.9000465434537        131.24812112434824       8.040569334518267        # O
204  204  1    129.89200557670694       131.24812112434824       8.040569334518267        # O
205  205  1    139.88338766269607       131.24812112434824       8.040569334518267        # O
206  206  1    149.8753466386158        131.24812112434824       8.040569334518267        # O
207  207  1    159.86672878193846       131.24812112434824       8.040569334518267        # O
208  208  1    9.991958975919722        131.24812112434824       8.040569334518267        # O
209  209  1    19.98334111924238        131.24812112434824       8.040569334518267        # O
210  210  1    29.9753000951621         131.24812112434824       8.040569334518267        # O
211  211  1    39.96668218115123        131.24812112434824       8.040569334518267        # O
212  212  1    49.95864115707096        131.24812112434824       8.040569334518267        # O
213  213  1    59.95002330039361        131.24812112434824       8.040569334518267        # O
214  214  1    69.94198227631334        131.24812112434824       8.040569334518267        # O
215  215  1    89.92532333822219        137.01726931508884       8.040569334518267        # O
216  216  1    99.91670548154484        137.01726931508884       8.040569334518267        # O
217  217  1    109.90866445746458       137.01726931508884       8.040569334518267        # O
218  218  1    119.9000465434537        137.01726931508884       8.040569334518267        # O
219  219  1    129.89200557670694       137.01726931508884       8.040569334518267        # O
220  220  1    139.88338766269607       137.01726931508884       8.040569334518267        # O
221  221  1    149.8753466386158        137.01726931508884       8.040569334518267        # O
222  222  1    159.86672878193846       137.01726931508884       8.040569334518267        # O
223  223  1    9.991958975919722        137.01726931508884       8.040569334518267        # O
224  224  1    19.98334111924238        137.01726931508884       8.040569334518267        # O
225  225  1    29.9753000951621         137.01726931508884       8.040569334518267        # O
226  226  1    39.96668218115123        137.01726931508884       8.040569334518267        # O
227  227  1    49.95864115707096        137.01726931508884       8.040569334518267        # O
228  228  1    59.95002330039361        137.01726931508884       8.040569334518267        # O
229  229  1    69.94198227631334        137.01726931508884       8.040569334518267        # O
230  230  1    79.93336436230246        137.01726931508884       8.040569334518267        # O
231  231  1    84.9290554339638         1.442287033351772        8.040569334518267        # O
232  232  1    94.92101440988351        1.442287033351772        8.040569334518267        # O
233  233  1    104.91239655320618       1.442287033351772        8.040569334518267        # O
234  234  1    114.9043555291259        1.442287033351772        8.040569334518267        # O
235  235  1    124.89573761511502       1.442287033351772        8.040569334518267        # O
236  236  1    134.88769659103474       1.442287033351772        8.040569334518267        # O
237  237  1    144.87907873435742       1.442287033351772        8.040569334518267        # O
238  238  1    154.8710377102771        1.442287033351772        8.040569334518267        # O
239  239  1    4.995691071661328        1.442287033351772        8.040569334518267        # O
240  240  1    14.98765004758105        1.442287033351772        8.040569334518267        # O
241  241  1    24.979032133570183       1.442287033351772        8.040569334518267        # O
242  242  1    34.9709911094899         1.442287033351772        8.040569334518267        # O
243  243  1    44.96237325281256        1.442287033351772        8.040569334518267        # O
244  244  1    54.95433222873229        1.442287033351772        8.040569334518267        # O
245  245  1    64.94571431472141        1.442287033351772        8.040569334518267        # O
246  246  1    74.93767334797465        1.442287033351772        8.040569334518267        # O
247  247  1    84.9290554339638         7.2114352240923845       8.040569334518267        # O
248  248  1    94.92101440988351        7.2114352240923845       8.040569334518267        # O
249  249  1    104.91239655320618       7.2114352240923845       8.040569334518267        # O
250  250  1    114.9043555291259        7.2114352240923845       8.040569334518267        # O
251  251  1    124.89573761511502       7.2114352240923845       8.040569334518267        # O
252  252  1    134.88769659103474       7.2114352240923845       8.040569334518267        # O
253  253  1    144.87907873435742       7.2114352240923845       8.040569334518267        # O
254  254  1    154.8710377102771        7.2114352240923845       8.040569334518267        # O
255  255  1    4.995691071661328        7.2114352240923845       8.040569334518267        # O
256  256  1    14.98765004758105        7.2114352240923845       8.040569334518267        # O
257  257  1    24.979032133570183       7.2114352240923845       8.040569334518267        # O
258  258  1    34.9709911094899         7.2114352240923845       8.040569334518267        # O
259  259  1    44.96237325281256        7.2114352240923845       8.040569334518267        # O
260  260  1    54.95433222873229        7.2114352240923845       8.040569334518267        # O
261  261  1    64.94571431472141        7.2114352240923845       8.040569334518267        # O
262  262  1    74.93767334797465        7.2114352240923845       8.040569334518267        # O
263  263  1    79.93336436230246        10.09600929079593        8.040569334518267        # O
264  264  1    89.92532333822219        10.09600929079593        8.040569334518267        # O
265  265  1    99.91670548154484        10.09600929079593        8.040569334518267        # O
266  266  1    109.90866445746458       10.09600929079593        8.040569334518267        # O
267  267  1    119.9000465434537        10.09600929079593        8.040569334518267        # O
268  268  1    129.89200557670694       10.09600929079593        8.040569334518267        # O
269  269  1    139.88338766269607       10.09600929079593        8.040569334518267        # O
270  270  1    149.8753466386158        10.09600929079593        8.040569334518267        # O
271  271  1    159.86672878193846       10.09600929079593        8.040569334518267        # O
272  272  1    9.991958975919722        10.09600929079593        8.040569334518267        # O
273  273  1    19.98334111924238        10.09600929079593        8.040569334518267        # O
274  274  1    29.9753000951621         10.09600929079593        8.040569334518267        # O
275  275  1    39.96668218115123        10.09600929079593        8.040569334518267        # O
276  276  1    49.95864115707096        10.09600929079593        8.040569334518267        # O
277  277  1    59.95002330039361        10.09600929079593        8.040569334518267        # O
278  278  1    69.94198227631334        10.09600929079593        8.040569334518267        # O
279  279  1    89.92532333822219        15.865157481536542       8.040569334518267        # O
280  280  1    99.91670548154484        15.865157481536542       8.040569334518267        # O
281  281  1    109.90866445746458       15.865157481536542       8.040569334518267        # O
282  282  1    119.9000465434537        15.865157481536542       8.040569334518267        # O
283  283  1    129.89200557670694       15.865157481536542       8.040569334518267        # O
284  284  1    139.88338766269607       15.865157481536542       8.040569334518267        # O
285  285  1    149.8753466386158        15.865157481536542       8.040569334518267        # O
286  286  1    159.86672878193846       15.865157481536542       8.040569334518267        # O
287  287  1    9.991958975919722        15.865157481536542       8.040569334518267        # O
288  288  1    19.98334111924238        15.865157481536542       8.040569334518267        # O
289  289  1    29.9753000951621         15.865157481536542       8.040569334518267        # O
290  290  1    39.96668218115123        15.865157481536542       8.040569334518267        # O
291  291  1    49.95864115707096        15.865157481536542       8.040569334518267        # O
292  292  1    59.95002330039361        15.865157481536542       8.040569334518267        # O
293  293  1    69.94198227631334        15.865157481536542       8.040569334518267        # O
294  294  1    79.93336436230246        15.865157481536542       8.040569334518267        # O
295  295  1    84.9290554339638         18.74973160557361        8.040569334518267        # O
296  296  1    94.92101440988351        18.74973160557361        8.040569334518267        # O
297  297  1    104.91239655320618       18.74973160557361        8.040569334518267        # O
298  298  1    114.9043555291259        18.74973160557361        8.040569334518267        # O
299  299  1    124.89573761511502       18.74973160557361        8.040569334518267        # O
300  300  1    134.88769659103474       18.74973160557361        8.040569334518267        # O
301  301  1    144.87907873435742       18.74973160557361        8.040569334518267        # O
302  302  1    154.8710377102771        18.74973160557361        8.040569334518267        # O
303  303  1    4.995691071661328        18.74973160557361        8.040569334518267        # O
304  304  1    14.98765004758105        18.74973160557361        8.040569334518267        # O
305  305  1    24.979032133570183       18.74973160557361        8.040569334518267        # O
306  306  1    34.9709911094899         18.74973160557361        8.040569334518267        # O
307  307  1    44.96237325281256        18.74973160557361        8.040569334518267        # O
308  308  1    54.95433222873229        18.74973160557361        8.040569334518267        # O
309  309  1    64.94571431472141        18.74973160557361        8.040569334518267        # O
310  310  1    74.93767334797465        18.74973160557361        8.040569334518267        # O
311  311  1    84.9290554339638         24.518879796314227       8.040569334518267        # O
312  312  1    94.92101440988351        24.518879796314227       8.040569334518267        # O
313  313  1    104.91239655320618       24.518879796314227       8.040569334518267        # O
314  314  1    114.9043555291259        24.518879796314227       8.040569334518267        # O