DATA FILE Produced from netmc results (cf David Morley)
510 atoms
765 bonds
1530 angles
0 dihedrals
0 impropers
1 atom types
1 bond types
1 angle types
0 dihedral types
0 improper types
0.00000 27.658633450622375 xlo xhi
0.00000 23.953079134006966 ylo yhi

# Pair Coeffs
#
# 1  Si

# Bond Coeffs
# 
# 1  Si-Si

# Angle Coeffs
# 
# 1  Si-Si-Si

 Masses

1 28.085500 # Si

 Atoms # molecular

1    1    1    14.693617176771008       13.22409577189968        0.0                     # Si
2    2    1    16.422330858771566       13.22409577189968        0.0                     # Si
3    3    1    18.150944736275736       13.22409577189968        0.0                     # Si
4    4    1    19.8796584182763         13.22409577189968        0.0                     # Si
5    5    1    21.60827229578047        13.22409577189968        0.0                     # Si
6    6    1    23.33698597778103        13.22409577189968        0.0                     # Si
7    7    1    25.0655998552852         13.22409577189968        0.0                     # Si
8    8    1    26.794313537285763       13.22409577189968        0.0                     # Si
9    9    1    0.8643069387520848       13.22409577189968        0.0                     # Si
10   10   1    2.593020620752646        13.22409577189968        0.0                     # Si
11   11   1    4.321634498256815        13.22409577189968        0.0                     # Si
12   12   1    6.050348180257377        13.22409577189968        0.0                     # Si
13   13   1    7.778962057761546        13.22409577189968        0.0                     # Si
14   14   1    9.507675739762108        13.22409577189968        0.0                     # Si
15   15   1    11.236289617266277       13.22409577189968        0.0                     # Si
16   16   1    12.965003299266836       13.22409577189968        0.0                     # Si
17   17   1    15.558023920019483       13.723118253858159       0.0                     # Si
18   18   1    17.286637797523653       13.723118253858159       0.0                     # Si
19   19   1    19.015351479524217       13.723118253858159       0.0                     # Si
20   20   1    20.743965357028383       13.723118253858159       0.0                     # Si
21   21   1    22.472679039028947       13.723118253858159       0.0                     # Si
22   22   1    24.201292916533113       13.723118253858159       0.0                     # Si
23   23   1    25.930006598533673       13.723118253858159       0.0                     # Si
24   24   1    27.658620476037846       13.723118253858159       0.0                     # Si
25   25   1    1.728713682000561        13.723118253858159       0.0                     # Si
26   26   1    3.457327559504731        13.723118253858159       0.0                     # Si
27   27   1    5.186041241505292        13.723118253858159       0.0                     # Si
28   28   1    6.914655119009462        13.723118253858159       0.0                     # Si
29   29   1    8.643368801010022        13.723118253858159       0.0                     # Si
30   30   1    10.371982678514192       13.723118253858159       0.0                     # Si
31   31   1    12.100696360514753       13.723118253858159       0.0                     # Si
32   32   1    15.558023920019483       14.721163217775116       0.0                     # Si
33   33   1    17.286637797523653       14.721163217775116       0.0                     # Si
34   34   1    19.015351479524217       14.721163217775116       0.0                     # Si
35   35   1    20.743965357028383       14.721163217775116       0.0                     # Si
36   36   1    22.472679039028947       14.721163217775116       0.0                     # Si
37   37   1    24.201292916533113       14.721163217775116       0.0                     # Si
38   38   1    25.930006598533673       14.721163217775116       0.0                     # Si
39   39   1    27.658620476037846       14.721163217775116       0.0                     # Si
40   40   1    1.728713682000561        14.721163217775116       0.0                     # Si
41   41   1    3.457327559504731        14.721163217775116       0.0                     # Si
42   42   1    5.186041241505292        14.721163217775116       0.0                     # Si
43   43   1    6.914655119009462        14.721163217775116       0.0                     # Si
44   44   1    8.643368801010022        14.721163217775116       0.0                     # Si
45   45   1    10.371982678514192       14.721163217775116       0.0                     # Si
46   46   1    12.100696360514753       14.721163217775116       0.0                     # Si
47   47   1    14.693617176771008       15.220185699733594       0.0                     # Si
48   48   1    16.422330858771566       15.220185699733594       0.0                     # Si
49   49   1    18.150944736275736       15.220185699733594       0.0                     # Si
50   50   1    19.8796584182763         15.220185699733594       0.0                     # Si
51   51   1    21.60827229578047        15.220185699733594       0.0                     # Si
52   52   1    23.33698597778103        15.220185699733594       0.0                     # Si
53   53   1    25.0655998552852         15.220185699733594       0.0                     # Si
54   54   1    26.794313537285763       15.220185699733594       0.0                     # Si
55   55   1    0.8643069387520848       15.220185699733594       0.0                     # Si
56   56   1    2.593020620752646        15.220185699733594       0.0                     # Si
57   57   1    4.321634498256815        15.220185699733594       0.0                     # Si
58   58   1    6.050348180257377        15.220185699733594       0.0                     # Si
59   59   1    7.778962057761546        15.220185699733594       0.0                     # Si
60   60   1    9.507675739762108        15.220185699733594       0.0                     # Si
61   61   1    11.236289617266277       15.220185699733594       0.0                     # Si
62   62   1    12.965003299266836       15.220185699733594       0.0                     # Si
63   63   1    14.693617176771008       16.21823066365055        0.0                     # Si
64   64   1    16.422330858771566       16.21823066365055        0.0                     # Si
65   65   1    18.150944736275736       16.21823066365055        0.0                     # Si
66   66   1    19.8796584182763         16.21823066365055        0.0                     # Si
67   67   1    21.60827229578047        16.21823066365055        0.0                     # Si
68   68   1    23.33698597778103        16.21823066365055        0.0                     # Si
69   69   1    25.0655998552852         16.21823066365055        0.0                     # Si
70   70   1    26.794313537285763       16.21823066365055        0.0                     # Si
71   71   1    0.8643069387520848       16.21823066365055        0.0                     # Si
72   72   1    2.593020620752646        16.21823066365055        0.0                     # Si
73   73   1    4.321634498256815        16.21823066365055        0.0                     # Si
74   74   1    6.050348180257377        16.21823066365055        0.0                     # Si
75   75   1    7.778962057761546        16.21823066365055        0.0                     # Si
76   76   1    9.507675739762108        16.21823066365055        0.0                     # Si
77   77   1    11.236289617266277       16.21823066365055        0.0                     # Si
78   78   1    12.965003299266836       16.21823066365055        0.0                     # Si
79   79   1    13.829310238018923       16.71725314560903        0.0                     # Si
80   80   1    15.558023920019483       16.71725314560903        0.0                     # Si
81   81   1    17.286637797523653       16.71725314560903        0.0                     # Si
82   82   1    19.015351479524217       16.71725314560903        0.0                     # Si
83   83   1    20.743965357028383       16.71725314560903        0.0                     # Si
84   84   1    22.472679039028947       16.71725314560903        0.0                     # Si
85   85   1    24.201292916533113       16.71725314560903        0.0                     # Si
86   86   1    25.930006598533673       16.71725314560903        0.0                     # Si
87   87   1    27.658620476037846       16.71725314560903        0.0                     # Si
88   88   1    1.728713682000561        16.71725314560903        0.0                     # Si
89   89   1    3.457327559504731        16.71725314560903        0.0                     # Si
90   90   1    5.186041241505292        16.71725314560903        0.0                     # Si
91   91   1    6.914655119009462        16.71725314560903        0.0                     # Si
92   92   1    8.643368801010022        16.71725314560903        0.0                     # Si
93   93   1    10.371982678514192       16.71725314560903        0.0                     # Si
94   94   1    12.100696360514753       16.71725314560903        0.0                     # Si
95   95   1    15.558023920019483       17.715298109525985       0.0                     # Si
96   96   1    17.286637797523653       17.715298109525985       0.0                     # Si
97   97   1    19.015351479524217       17.715298109525985       0.0                     # Si
98   98   1    20.743965357028383       17.715298109525985       0.0                     # Si
99   99   1    22.472679039028947       17.715298109525985       0.0                     # Si
100  100  1    24.201292916533113       17.715298109525985       0.0                     # Si
101  101  1    25.930006598533673       17.715298109525985       0.0                     # Si
102  102  1    27.658620476037846       17.715298109525985       0.0                     # Si
103  103  1    1.728713682000561        17.715298109525985       0.0                     # Si
104  104  1    3.457327559504731        17.715298109525985       0.0                     # Si
105  105  1    5.186041241505292        17.715298109525985       0.0                     # Si
106  106  1    6.914655119009462        17.715298109525985       0.0                     # Si
107  107  1    8.643368801010022        17.715298109525985       0.0                     # Si
108  108  1    10.371982678514192       17.715298109525985       0.0                     # Si
109  109  1    12.100696360514753       17.715298109525985       0.0                     # Si
110  110  1    13.829310238018923       17.715298109525985       0.0                     # Si
111  111  1    14.693617176771008       18.214320591484466       0.0                     # Si
112  112  1    16.422330858771566       18.214320591484466       0.0                     # Si
113  113  1    18.150944736275736       18.214320591484466       0.0                     # Si
114  114  1    19.8796584182763         18.214320591484466       0.0                     # Si
115  115  1    21.60827229578047        18.214320591484466       0.0                     # Si
116  116  1    23.33698597778103        18.214320591484466       0.0                     # Si
117  117  1    25.0655998552852         18.214320591484466       0.0                     # Si
118  118  1    26.794313537285763       18.214320591484466       0.0                     # Si
119  119  1    0.8643069387520848       18.214320591484466       0.0                     # Si
120  120  1    2.593020620752646        18.214320591484466       0.0                     # Si
121  121  1    4.321634498256815        18.214320591484466       0.0                     # Si
122  122  1    6.050348180257377        18.214320591484466       0.0                     # Si
123  123  1    7.778962057761546        18.214320591484466       0.0                     # Si
124  124  1    9.507675739762108        18.214320591484466       0.0                     # Si
125  125  1    11.236289617266277       18.214320591484466       0.0                     # Si
126  126  1    12.965003299266836       18.214320591484466       0.0                     # Si
127  127  1    14.693617176771008       19.212365555401423       0.0                     # Si
128  128  1    16.422330858771566       19.212365555401423       0.0                     # Si
129  129  1    18.150944736275736       19.212365555401423       0.0                     # Si
130  130  1    19.8796584182763         19.212365555401423       0.0                     # Si
131  131  1    21.60827229578047        19.212365555401423       0.0                     # Si
132  132  1    23.33698597778103        19.212365555401423       0.0                     # Si
133  133  1    25.0655998552852         19.212365555401423       0.0                     # Si
134  134  1    26.794313537285763       19.212365555401423       0.0                     # Si
135  135  1    0.8643069387520848       19.212365555401423       0.0                     # Si
136  136  1    2.593020620752646        19.212365555401423       0.0                     # Si
137  137  1    4.321634498256815        19.212365555401423       0.0                     # Si
138  138  1    6.050348180257377        19.212365555401423       0.0                     # Si
139  139  1    7.778962057761546        19.212365555401423       0.0                     # Si
140  140  1    9.507675739762108        19.212365555401423       0.0                     # Si
141  141  1    11.236289617266277       19.212365555401423       0.0                     # Si
142  142  1    12.965003299266836       19.212365555401423       0.0                     # Si
143  143  1    13.829310238018923       19.7113880373599         0.0                     # Si
144  144  1    15.558023920019483       19.7113880373599         0.0                     # Si
145  145  1    17.286637797523653       19.7113880373599         0.0                     # Si
146  146  1    19.015351479524217       19.7113880373599         0.0                     # Si
147  147  1    20.743965357028383       19.7113880373599         0.0                     # Si
148  148  1    22.472679039028947       19.7113880373599         0.0                     # Si
149  149  1    24.201292916533113       19.7113880373599         0.0                     # Si
150  150  1    25.930006598533673       19.7113880373599         0.0                     # Si
151  151  1    27.658620476037846       19.7113880373599         0.0                     # Si
152  152  1    1.728713682000561        19.7113880373599         0.0                     # Si
153  153  1    3.457327559504731        19.7113880373599         0.0                     # Si
154  154  1    5.186041241505292        19.7113880373599         0.0                     # Si
155  155  1    6.914655119009462        19.7113880373599         0.0                     # Si
156  156  1    8.643368801010022        19.7113880373599         0.0                     # Si
157  157  1    10.371982678514192       19.7113880373599         0.0                     # Si
158  158  1    12.100696360514753       19.7113880373599         0.0                     # Si
159  159  1    15.558023920019483       20.709433001276857       0.0                     # Si
160  160  1    17.286637797523653       20.709433001276857       0.0                     # Si
161  161  1    19.015351479524217       20.709433001276857       0.0                     # Si
162  162  1    20.743965357028383       20.709433001276857       0.0                     # Si
163  163  1    22.472679039028947       20.709433001276857       0.0                     # Si
164  164  1    24.201292916533113       20.709433001276857       0.0                     # Si
165  165  1    25.930006598533673       20.709433001276857       0.0                     # Si
166  166  1    27.658620476037846       20.709433001276857       0.0                     # Si
167  167  1    1.728713682000561        20.709433001276857       0.0                     # Si
168  168  1    3.457327559504731        20.709433001276857       0.0                     # Si
169  169  1    5.186041241505292        20.709433001276857       0.0                     # Si
170  170  1    6.914655119009462        20.709433001276857       0.0                     # Si
171  171  1    8.643368801010022        20.709433001276857       0.0                     # Si
172  172  1    10.371982678514192       20.709433001276857       0.0                     # Si
173  173  1    12.100696360514753       20.709433001276857       0.0                     # Si
174  174  1    13.829310238018923       20.709433001276857       0.0                     # Si
175  175  1    14.693617176771008       21.208455483235337       0.0                     # Si
176  176  1    16.422330858771566       21.208455483235337       0.0                     # Si
177  177  1    18.150944736275736       21.208455483235337       0.0                     # Si
178  178  1    19.8796584182763         21.208455483235337       0.0                     # Si
179  179  1    21.60827229578047        21.208455483235337       0.0                     # Si
180  180  1    23.33698597778103        21.208455483235337       0.0                     # Si
181  181  1    25.0655998552852         21.208455483235337       0.0                     # Si
182  182  1    26.794313537285763       21.208455483235337       0.0                     # Si
183  183  1    0.8643069387520848       21.208455483235337       0.0                     # Si
184  184  1    2.593020620752646        21.208455483235337       0.0                     # Si
185  185  1    4.321634498256815        21.208455483235337       0.0                     # Si
186  186  1    6.050348180257377        21.208455483235337       0.0                     # Si
187  187  1    7.778962057761546        21.208455483235337       0.0                     # Si
188  188  1    9.507675739762108        21.208455483235337       0.0                     # Si
189  189  1    11.236289617266277       21.208455483235337       0.0                     # Si
190  190  1    12.965003299266836       21.208455483235337       0.0                     # Si
191  191  1    14.693617176771008       22.206500447152294       0.0                     # Si
192  192  1    16.422330858771566       22.206500447152294       0.0                     # Si
193  193  1    18.150944736275736       22.206500447152294       0.0                     # Si
194  194  1    19.8796584182763         22.206500447152294       0.0                     # Si
195  195  1    21.60827229578047        22.206500447152294       0.0                     # Si
196  196  1    23.33698597778103        22.206500447152294       0.0                     # Si
197  197  1    25.0655998552852         22.206500447152294       0.0                     # Si
198  198  1    26.794313537285763       22.206500447152294       0.0                     # Si
199  199  1    0.8643069387520848       22.206500447152294       0.0                     # Si
200  200  1    2.593020620752646        22.206500447152294       0.0                     # Si
201  201  1    4.321634498256815        22.206500447152294       0.0                     # Si
202  202  1    6.050348180257377        22.206500447152294       0.0                     # Si
203  203  1    7.778962057761546        22.206500447152294       0.0                     # Si
204  204  1    9.507675739762108        22.206500447152294       0.0                     # Si
205  205  1    11.236289617266277       22.206500447152294       0.0                     # Si
206  206  1    12.965003299266836       22.206500447152294       0.0                     # Si
207  207  1    13.829310238018923       22.70552292911077        0.0                     # Si
208  208  1    15.558023920019483       22.70552292911077        0.0                     # Si
209  209  1    17.286637797523653       22.70552292911077        0.0                     # Si
210  210  1    19.015351479524217       22.70552292911077        0.0                     # Si
211  211  1    20.743965357028383       22.70552292911077        0.0                     # Si
212  212  1    22.472679039028947       22.70552292911077        0.0                     # Si
213  213  1    24.201292916533113       22.70552292911077        0.0                     # Si
214  214  1    25.930006598533673       22.70552292911077        0.0                     # Si
215  215  1    27.658620476037846       22.70552292911077        0.0                     # Si
216  216  1    1.728713682000561        22.70552292911077        0.0                     # Si
217  217  1    3.457327559504731        22.70552292911077        0.0                     # Si
218  218  1    5.186041241505292        22.70552292911077        0.0                     # Si
219  219  1    6.914655119009462        22.70552292911077        0.0                     # Si
220  220  1    8.643368801010022        22.70552292911077        0.0                     # Si
221  221  1    10.371982678514192       22.70552292911077        0.0                     # Si
222  222  1    12.100696360514753       22.70552292911077        0.0                     # Si
223  223  1    15.558023920019483       23.703567893027728       0.0                     # Si
224  224  1    17.286637797523653       23.703567893027728       0.0                     # Si
225  225  1    19.015351479524217       23.703567893027728       0.0                     # Si
226  226  1    20.743965357028383       23.703567893027728       0.0                     # Si
227  227  1    22.472679039028947       23.703567893027728       0.0                     # Si
228  228  1    24.201292916533113       23.703567893027728       0.0                     # Si
229  229  1    25.930006598533673       23.703567893027728       0.0                     # Si
230  230  1    27.658620476037846       23.703567893027728       0.0                     # Si
231  231  1    1.728713682000561        23.703567893027728       0.0                     # Si
232  232  1    3.457327559504731        23.703567893027728       0.0                     # Si
233  233  1    5.186041241505292        23.703567893027728       0.0                     # Si
234  234  1    6.914655119009462        23.703567893027728       0.0                     # Si
235  235  1    8.643368801010022        23.703567893027728       0.0                     # Si
236  236  1    10.371982678514192       23.703567893027728       0.0                     # Si
237  237  1    12.100696360514753       23.703567893027728       0.0                     # Si
238  238  1    13.829310238018923       23.703567893027728       0.0                     # Si
239  239  1    14.693617176771008       0.24951124097923924      0.0                     # Si
240  240  1    16.422330858771566       0.24951124097923924      0.0                     # Si
241  241  1    18.150944736275736       0.24951124097923924      0.0                     # Si
242  242  1    19.8796584182763         0.24951124097923924      0.0                     # Si
243  243  1    21.60827229578047        0.24951124097923924      0.0                     # Si
244  244  1    23.33698597778103        0.24951124097923924      0.0                     # Si
245  245  1    25.0655998552852         0.24951124097923924      0.0                     # Si
246  246  1    26.794313537285763       0.24951124097923924      0.0                     # Si
247  247  1    0.8643069387520848       0.24951124097923924      0.0                     # Si
248  248  1    2.593020620752646        0.24951124097923924      0.0                     # Si
249  249  1    4.321634498256815        0.24951124097923924      0.0                     # Si
250  250  1    6.050348180257377        0.24951124097923924      0.0                     # Si
251  251  1    7.778962057761546        0.24951124097923924      0.0                     # Si
252  252  1    9.507675739762108        0.24951124097923924      0.0                     # Si
253  253  1    11.236289617266277       0.24951124097923924      0.0                     # Si
254  254  1    12.965003299266836       0.24951124097923924      0.0                     # Si
255  255  1    14.693617176771008       1.2475562048961961       0.0                     # Si
256  256  1    16.422330858771566       1.2475562048961961       0.0                     # Si
257  257  1    18.150944736275736       1.2475562048961961       0.0                     # Si
258  258  1    19.8796584182763         1.2475562048961961       0.0                     # Si
259  259  1    21.60827229578047        1.2475562048961961       0.0                     # Si
260  260  1    23.33698597778103        1.2475562048961961       0.0                     # Si
261  261  1    25.0655998552852         1.2475562048961961       0.0                     # Si
262  262  1    26.794313537285763       1.2475562048961961       0.0                     # Si
263  263  1    0.8643069387520848       1.2475562048961961       0.0                     # Si
264  264  1    2.593020620752646        1.2475562048961961       0.0                     # Si
265  265  1    4.321634498256815        1.2475562048961961       0.0                     # Si
266  266  1    6.050348180257377        1.2475562048961961       0.0                     # Si
267  267  1    7.778962057761546        1.2475562048961961       0.0                     # Si
268  268  1    9.507675739762108        1.2475562048961961       0.0                     # Si
269  269  1    11.236289617266277       1.2475562048961961       0.0                     # Si
270  270  1    12.965003299266836       1.2475562048961961       0.0                     # Si
271  271  1    13.829310238018923       1.7465786868546747       0.0                     # Si
272  272  1    15.558023920019483       1.7465786868546747       0.0                     # Si
273  273  1    17.286637797523653       1.7465786868546747       0.0                     # Si
274  274  1    19.015351479524217       1.7465786868546747       0.0                     # Si
275  275  1    20.743965357028383       1.7465786868546747       0.0                     # Si
276  276  1    22.472679039028947       1.7465786868546747       0.0                     # Si
277  277  1    24.201292916533113       1.7465786868546747       0.0                     # Si
278  278  1    25.930006598533673       1.7465786868546747       0.0                     # Si
279  279  1    27.658620476037846       1.7465786868546747       0.0                     # Si
280  280  1    1.728713682000561        1.7465786868546747       0.0                     # Si
281  281  1    3.457327559504731        1.7465786868546747       0.0                     # Si
282  282  1    5.186041241505292        1.7465786868546747       0.0                     # Si
283  283  1    6.914655119009462        1.7465786868546747       0.0                     # Si
284  284  1    8.643368801010022        1.7465786868546747       0.0                     # Si
285  285  1    10.371982678514192       1.7465786868546747       0.0                     # Si
286  286  1    12.100696360514753       1.7465786868546747       0.0                     # Si
287  287  1    15.558023920019483       2.7446236507716315       0.0                     # Si
288  288  1    17.286637797523653       2.7446236507716315       0.0                     # Si
289  289  1    19.015351479524217       2.7446236507716315       0.0                     # Si
290  290  1    20.743965357028383       2.7446236507716315       0.0                     # Si
291  291  1    22.472679039028947       2.7446236507716315       0.0                     # Si
292  292  1    24.201292916533113       2.7446236507716315       0.0                     # Si
293  293  1    25.930006598533673       2.7446236507716315       0.0                     # Si
294  294  1    27.658620476037846       2.7446236507716315       0.0                     # Si
295  295  1    1.728713682000561        2.7446236507716315       0.0                     # Si
296  296  1    3.457327559504731        2.7446236507716315       0.0                     # Si
297  297  1    5.186041241505292        2.7446236507716315       0.0                     # Si
298  298  1    6.914655119009462        2.7446236507716315       0.0                     # Si
299  299  1    8.643368801010022        2.7446236507716315       0.0                     # Si
300  300  1    10.371982678514192       2.7446236507716315       0.0                     # Si
301  301  1    12.100696360514753       2.7446236507716315       0.0                     # Si
302  302  1    13.829310238018923       2.7446236507716315       0.0                     # Si
303  303  1    14.693617176771008       3.24364613273011         0.0                     # Si
304  304  1    16.422330858771566       3.24364613273011         0.0                     # Si
305  305  1    18.150944736275736       3.24364613273011         0.0                     # Si
306  306  1    19.8796584182763         3.24364613273011         0.0                     # Si
307  307  1    21.60827229578047        3.24364613273011         0.0                     # Si
308  308  1    23.33698597778103        3.24364613273011         0.0                     # Si
309  309  1    25.0655998552852         3.24364613273011         0.0                     # Si
310  310  1    26.794313537285763       3.24364613273011         0.0                     # Si
311  311  1    0.8643069387520848       3.24364613273011         0.0                     # Si
312  312  1    2.593020620752646        3.24364613273011         0.0                     # Si
313  313  1    4.321634498256815        3.24364613273011         0.0                     # Si
314  314  1    6.050348180257377        3.24364613273011         0.0                     # Si