DATA FILE Produced from netmc results (cf David Morley)
3060 atoms
10200 bonds
0 angles
0 dihedrals
0 impropers
2 atom types
0 bond types
2 bond types
0 angle types
0 dihedral types
0 improper types
0.00000 158.5766958016807 xlo xhi
0.00000 137.33144662147205 ylo yhi
0.0000 200.0000 zlo zhi

# Pair Coeffs
#
# 1  O
# 2  Si

# Bond Coeffs
# 
# 1  O-O
# 2  Si-O
# 3  O-O rep
# 4  Si-Si rep

 Masses

1 28.10000 # O 
2 32.01000 # Si

 Atoms # molecular

1    1    2    84.24368707249836        75.81840282227104        5.0                      # Si
2    2    2    84.24368707249836        75.81840282227104        11.081138669036534       # Si
3    3    2    94.15501201804216        75.81840282227104        5.0                      # Si
4    4    2    94.15501201804216        75.81840282227104        11.081138669036534       # Si
5    5    2    104.06576474922507       75.81840282227104        5.0                      # Si
6    6    2    104.06576474922507       75.81840282227104        11.081138669036534       # Si
7    7    2    113.9770896947689        75.81840282227104        5.0                      # Si
8    8    2    113.9770896947689        75.81840282227104        11.081138669036534       # Si
9    9    2    123.8878424259518        75.81840282227104        5.0                      # Si
10   10   2    123.8878424259518        75.81840282227104        11.081138669036534       # Si
11   11   2    133.79916737149563       75.81840282227104        5.0                      # Si
12   12   2    133.79916737149563       75.81840282227104        11.081138669036534       # Si
13   13   2    143.70992010267852       75.81840282227104        5.0                      # Si
14   14   2    143.70992010267852       75.81840282227104        11.081138669036534       # Si
15   15   2    153.62124504822236       75.81840282227104        5.0                      # Si
16   16   2    153.62124504822236       75.81840282227104        11.081138669036534       # Si
17   17   2    4.955376365591451        75.81840282227104        5.0                      # Si
18   18   2    4.955376365591451        75.81840282227104        11.081138669036534       # Si
19   19   2    14.866701311135273       75.81840282227104        5.0                      # Si
20   20   2    14.866701311135273       75.81840282227104        11.081138669036534       # Si
21   21   2    24.777454042318173       75.81840282227104        5.0                      # Si
22   22   2    24.777454042318173       75.81840282227104        11.081138669036534       # Si
23   23   2    34.688778987862          75.81840282227104        5.0                      # Si
24   24   2    34.688778987862          75.81840282227104        11.081138669036534       # Si
25   25   2    44.5995317190449         75.81840282227104        5.0                      # Si
26   26   2    44.5995317190449         75.81840282227104        11.081138669036534       # Si
27   27   2    54.51085666458873        75.81840282227104        5.0                      # Si
28   28   2    54.51085666458873        75.81840282227104        11.081138669036534       # Si
29   29   2    64.42160939577163        75.81840282227104        5.0                      # Si
30   30   2    64.42160939577163        75.81840282227104        11.081138669036534       # Si
31   31   2    74.33293434131544        75.81840282227104        5.0                      # Si
32   32   2    74.33293434131544        75.81840282227104        11.081138669036534       # Si
33   33   2    89.19963565245072        78.67947462688504        5.0                      # Si
34   34   2    89.19963565245072        78.67947462688504        11.081138669036534       # Si
35   35   2    99.11038838363362        78.67947462688504        5.0                      # Si
36   36   2    99.11038838363362        78.67947462688504        11.081138669036534       # Si
37   37   2    109.02171332917746       78.67947462688504        5.0                      # Si
38   38   2    109.02171332917746       78.67947462688504        11.081138669036534       # Si
39   39   2    118.93246606036034       78.67947462688504        5.0                      # Si
40   40   2    118.93246606036034       78.67947462688504        11.081138669036534       # Si
41   41   2    128.8437910059042        78.67947462688504        5.0                      # Si
42   42   2    128.8437910059042        78.67947462688504        11.081138669036534       # Si
43   43   2    138.75454373708706       78.67947462688504        5.0                      # Si
44   44   2    138.75454373708706       78.67947462688504        11.081138669036534       # Si
45   45   2    148.66586868263087       78.67947462688504        5.0                      # Si
46   46   2    148.66586868263087       78.67947462688504        11.081138669036534       # Si
47   47   2    158.5766214138138        78.67947462688504        5.0                      # Si
48   48   2    158.5766214138138        78.67947462688504        11.081138669036534       # Si
49   49   2    9.911324945543823        78.67947462688504        5.0                      # Si
50   50   2    9.911324945543823        78.67947462688504        11.081138669036534       # Si
51   51   2    19.822077676726725       78.67947462688504        5.0                      # Si
52   52   2    19.822077676726725       78.67947462688504        11.081138669036534       # Si
53   53   2    29.733402622270546       78.67947462688504        5.0                      # Si
54   54   2    29.733402622270546       78.67947462688504        11.081138669036534       # Si
55   55   2    39.64415535345345        78.67947462688504        5.0                      # Si
56   56   2    39.64415535345345        78.67947462688504        11.081138669036534       # Si
57   57   2    49.55548029899727        78.67947462688504        5.0                      # Si
58   58   2    49.55548029899727        78.67947462688504        11.081138669036534       # Si
59   59   2    59.46623303018017        78.67947462688504        5.0                      # Si
60   60   2    59.46623303018017        78.67947462688504        11.081138669036534       # Si
61   61   2    69.377557975724          78.67947462688504        5.0                      # Si
62   62   2    69.377557975724          78.67947462688504        11.081138669036534       # Si
63   63   2    89.19963565245072        84.40161823611305        5.0                      # Si
64   64   2    89.19963565245072        84.40161823611305        11.081138669036534       # Si
65   65   2    99.11038838363362        84.40161823611305        5.0                      # Si
66   66   2    99.11038838363362        84.40161823611305        11.081138669036534       # Si
67   67   2    109.02171332917746       84.40161823611305        5.0                      # Si
68   68   2    109.02171332917746       84.40161823611305        11.081138669036534       # Si
69   69   2    118.93246606036034       84.40161823611305        5.0                      # Si
70   70   2    118.93246606036034       84.40161823611305        11.081138669036534       # Si
71   71   2    128.8437910059042        84.40161823611305        5.0                      # Si
72   72   2    128.8437910059042        84.40161823611305        11.081138669036534       # Si
73   73   2    138.75454373708706       84.40161823611305        5.0                      # Si
74   74   2    138.75454373708706       84.40161823611305        11.081138669036534       # Si
75   75   2    148.66586868263087       84.40161823611305        5.0                      # Si
76   76   2    148.66586868263087       84.40161823611305        11.081138669036534       # Si
77   77   2    158.5766214138138        84.40161823611305        5.0                      # Si
78   78   2    158.5766214138138        84.40161823611305        11.081138669036534       # Si
79   79   2    9.911324945543823        84.40161823611305        5.0                      # Si
80   80   2    9.911324945543823        84.40161823611305        11.081138669036534       # Si
81   81   2    19.822077676726725       84.40161823611305        5.0                      # Si
82   82   2    19.822077676726725       84.40161823611305        11.081138669036534       # Si
83   83   2    29.733402622270546       84.40161823611305        5.0                      # Si
84   84   2    29.733402622270546       84.40161823611305        11.081138669036534       # Si
85   85   2    39.64415535345345        84.40161823611305        5.0                      # Si
86   86   2    39.64415535345345        84.40161823611305        11.081138669036534       # Si
87   87   2    49.55548029899727        84.40161823611305        5.0                      # Si
88   88   2    49.55548029899727        84.40161823611305        11.081138669036534       # Si
89   89   2    59.46623303018017        84.40161823611305        5.0                      # Si
90   90   2    59.46623303018017        84.40161823611305        11.081138669036534       # Si
91   91   2    69.377557975724          84.40161823611305        5.0                      # Si
92   92   2    69.377557975724          84.40161823611305        11.081138669036534       # Si
93   93   2    84.24368707249836        87.26269004072705        5.0                      # Si
94   94   2    84.24368707249836        87.26269004072705        11.081138669036534       # Si
95   95   2    94.15501201804216        87.26269004072705        5.0                      # Si
96   96   2    94.15501201804216        87.26269004072705        11.081138669036534       # Si
97   97   2    104.06576474922507       87.26269004072705        5.0                      # Si
98   98   2    104.06576474922507       87.26269004072705        11.081138669036534       # Si
99   99   2    113.9770896947689        87.26269004072705        5.0                      # Si
100  100  2    113.9770896947689        87.26269004072705        11.081138669036534       # Si
101  101  2    123.8878424259518        87.26269004072705        5.0                      # Si
102  102  2    123.8878424259518        87.26269004072705        11.081138669036534       # Si
103  103  2    133.79916737149563       87.26269004072705        5.0                      # Si
104  104  2    133.79916737149563       87.26269004072705        11.081138669036534       # Si
105  105  2    143.70992010267852       87.26269004072705        5.0                      # Si
106  106  2    143.70992010267852       87.26269004072705        11.081138669036534       # Si
107  107  2    153.62124504822236       87.26269004072705        5.0                      # Si
108  108  2    153.62124504822236       87.26269004072705        11.081138669036534       # Si
109  109  2    4.955376365591451        87.26269004072705        5.0                      # Si
110  110  2    4.955376365591451        87.26269004072705        11.081138669036534       # Si
111  111  2    14.866701311135273       87.26269004072705        5.0                      # Si
112  112  2    14.866701311135273       87.26269004072705        11.081138669036534       # Si
113  113  2    24.777454042318173       87.26269004072705        5.0                      # Si
114  114  2    24.777454042318173       87.26269004072705        11.081138669036534       # Si
115  115  2    34.688778987862          87.26269004072705        5.0                      # Si
116  116  2    34.688778987862          87.26269004072705        11.081138669036534       # Si
117  117  2    44.5995317190449         87.26269004072705        5.0                      # Si
118  118  2    44.5995317190449         87.26269004072705        11.081138669036534       # Si
119  119  2    54.51085666458873        87.26269004072705        5.0                      # Si
120  120  2    54.51085666458873        87.26269004072705        11.081138669036534       # Si
121  121  2    64.42160939577163        87.26269004072705        5.0                      # Si
122  122  2    64.42160939577163        87.26269004072705        11.081138669036534       # Si
123  123  2    74.33293434131544        87.26269004072705        5.0                      # Si
124  124  2    74.33293434131544        87.26269004072705        11.081138669036534       # Si
125  125  2    84.24368707249836        92.98483364995505        5.0                      # Si
126  126  2    84.24368707249836        92.98483364995505        11.081138669036534       # Si
127  127  2    94.15501201804216        92.98483364995505        5.0                      # Si
128  128  2    94.15501201804216        92.98483364995505        11.081138669036534       # Si
129  129  2    104.06576474922507       92.98483364995505        5.0                      # Si
130  130  2    104.06576474922507       92.98483364995505        11.081138669036534       # Si
131  131  2    113.9770896947689        92.98483364995505        5.0                      # Si
132  132  2    113.9770896947689        92.98483364995505        11.081138669036534       # Si
133  133  2    123.8878424259518        92.98483364995505        5.0                      # Si
134  134  2    123.8878424259518        92.98483364995505        11.081138669036534       # Si
135  135  2    133.79916737149563       92.98483364995505        5.0                      # Si
136  136  2    133.79916737149563       92.98483364995505        11.081138669036534       # Si
137  137  2    143.70992010267852       92.98483364995505        5.0                      # Si
138  138  2    143.70992010267852       92.98483364995505        11.081138669036534       # Si
139  139  2    153.62124504822236       92.98483364995505        5.0                      # Si
140  140  2    153.62124504822236       92.98483364995505        11.081138669036534       # Si
141  141  2    4.955376365591451        92.98483364995505        5.0                      # Si
142  142  2    4.955376365591451        92.98483364995505        11.081138669036534       # Si
143  143  2    14.866701311135273       92.98483364995505        5.0                      # Si
144  144  2    14.866701311135273       92.98483364995505        11.081138669036534       # Si
145  145  2    24.777454042318173       92.98483364995505        5.0                      # Si
146  146  2    24.777454042318173       92.98483364995505        11.081138669036534       # Si
147  147  2    34.688778987862          92.98483364995505        5.0                      # Si
148  148  2    34.688778987862          92.98483364995505        11.081138669036534       # Si
149  149  2    44.5995317190449         92.98483364995505        5.0                      # Si
150  150  2    44.5995317190449         92.98483364995505        11.081138669036534       # Si
151  151  2    54.51085666458873        92.98483364995505        5.0                      # Si
152  152  2    54.51085666458873        92.98483364995505        11.081138669036534       # Si
153  153  2    64.42160939577163        92.98483364995505        5.0                      # Si
154  154  2    64.42160939577163        92.98483364995505        11.081138669036534       # Si
155  155  2    74.33293434131544        92.98483364995505        5.0                      # Si
156  156  2    74.33293434131544        92.98483364995505        11.081138669036534       # Si
157  157  2    79.2883107069069         95.84590545456903        5.0                      # Si
158  158  2    79.2883107069069         95.84590545456903        11.081138669036534       # Si
159  159  2    89.19963565245072        95.84590545456903        5.0                      # Si
160  160  2    89.19963565245072        95.84590545456903        11.081138669036534       # Si
161  161  2    99.11038838363362        95.84590545456903        5.0                      # Si
162  162  2    99.11038838363362        95.84590545456903        11.081138669036534       # Si
163  163  2    109.02171332917746       95.84590545456903        5.0                      # Si
164  164  2    109.02171332917746       95.84590545456903        11.081138669036534       # Si
165  165  2    118.93246606036034       95.84590545456903        5.0                      # Si
166  166  2    118.93246606036034       95.84590545456903        11.081138669036534       # Si
167  167  2    128.8437910059042        95.84590545456903        5.0                      # Si
168  168  2    128.8437910059042        95.84590545456903        11.081138669036534       # Si
169  169  2    138.75454373708706       95.84590545456903        5.0                      # Si
170  170  2    138.75454373708706       95.84590545456903        11.081138669036534       # Si
171  171  2    148.66586868263087       95.84590545456903        5.0                      # Si
172  172  2    148.66586868263087       95.84590545456903        11.081138669036534       # Si
173  173  2    158.5766214138138        95.84590545456903        5.0                      # Si
174  174  2    158.5766214138138        95.84590545456903        11.081138669036534       # Si
175  175  2    9.911324945543823        95.84590545456903        5.0                      # Si
176  176  2    9.911324945543823        95.84590545456903        11.081138669036534       # Si
177  177  2    19.822077676726725       95.84590545456903        5.0                      # Si
178  178  2    19.822077676726725       95.84590545456903        11.081138669036534       # Si
179  179  2    29.733402622270546       95.84590545456903        5.0                      # Si
180  180  2    29.733402622270546       95.84590545456903        11.081138669036534       # Si
181  181  2    39.64415535345345        95.84590545456903        5.0                      # Si
182  182  2    39.64415535345345        95.84590545456903        11.081138669036534       # Si
183  183  2    49.55548029899727        95.84590545456903        5.0                      # Si
184  184  2    49.55548029899727        95.84590545456903        11.081138669036534       # Si
185  185  2    59.46623303018017        95.84590545456903        5.0                      # Si
186  186  2    59.46623303018017        95.84590545456903        11.081138669036534       # Si
187  187  2    69.377557975724          95.84590545456903        5.0                      # Si
188  188  2    69.377557975724          95.84590545456903        11.081138669036534       # Si
189  189  2    89.19963565245072        101.56804906379705       5.0                      # Si
190  190  2    89.19963565245072        101.56804906379705       11.081138669036534       # Si
191  191  2    99.11038838363362        101.56804906379705       5.0                      # Si
192  192  2    99.11038838363362        101.56804906379705       11.081138669036534       # Si
193  193  2    109.02171332917746       101.56804906379705       5.0                      # Si
194  194  2    109.02171332917746       101.56804906379705       11.081138669036534       # Si
195  195  2    118.93246606036034       101.56804906379705       5.0                      # Si
196  196  2    118.93246606036034       101.56804906379705       11.081138669036534       # Si
197  197  2    128.8437910059042        101.56804906379705       5.0                      # Si
198  198  2    128.8437910059042        101.56804906379705       11.081138669036534       # Si
199  199  2    138.75454373708706       101.56804906379705       5.0                      # Si
200  200  2    138.75454373708706       101.56804906379705       11.081138669036534       # Si
201  201  2    148.66586868263087       101.56804906379705       5.0                      # Si
202  202  2    148.66586868263087       101.56804906379705       11.081138669036534       # Si
203  203  2    158.5766214138138        101.56804906379705       5.0                      # Si
204  204  2    158.5766214138138        101.56804906379705       11.081138669036534       # Si
205  205  2    9.911324945543823        101.56804906379705       5.0                      # Si
206  206  2    9.911324945543823        101.56804906379705       11.081138669036534       # Si
207  207  2    19.822077676726725       101.56804906379705       5.0                      # Si
208  208  2    19.822077676726725       101.56804906379705       11.081138669036534       # Si
209  209  2    29.733402622270546       101.56804906379705       5.0                      # Si
210  210  2    29.733402622270546       101.56804906379705       11.081138669036534       # Si
211  211  2    39.64415535345345        101.56804906379705       5.0                      # Si
212  212  2    39.64415535345345        101.56804906379705       11.081138669036534       # Si
213  213  2    49.55548029899727        101.56804906379705       5.0                      # Si
214  214  2    49.55548029899727        101.56804906379705       11.081138669036534       # Si
215  215  2    59.46623303018017        101.56804906379705       5.0                      # Si
216  216  2    59.46623303018017        101.56804906379705       11.081138669036534       # Si
217  217  2    69.377557975724          101.56804906379705       5.0                      # Si
218  218  2    69.377557975724          101.56804906379705       11.081138669036534       # Si
219  219  2    79.2883107069069         101.56804906379705       5.0                      # Si
220  220  2    79.2883107069069         101.56804906379705       11.081138669036534       # Si
221  221  2    84.24368707249836        104.42912086841106       5.0                      # Si
222  222  2    84.24368707249836        104.42912086841106       11.081138669036534       # Si
223  223  2    94.15501201804216        104.42912086841106       5.0                      # Si
224  224  2    94.15501201804216        104.42912086841106       11.081138669036534       # Si
225  225  2    104.06576474922507       104.42912086841106       5.0                      # Si
226  226  2    104.06576474922507       104.42912086841106       11.081138669036534       # Si
227  227  2    113.9770896947689        104.42912086841106       5.0                      # Si
228  228  2    113.9770896947689        104.42912086841106       11.081138669036534       # Si
229  229  2    123.8878424259518        104.42912086841106       5.0                      # Si
230  230  2    123.8878424259518        104.42912086841106       11.081138669036534       # Si
231  231  2    133.79916737149563       104.42912086841106       5.0                      # Si
232  232  2    133.79916737149563       104.42912086841106       11.081138669036534       # Si
233  233  2    143.70992010267852       104.42912086841106       5.0                      # Si
234  234  2    143.70992010267852       104.42912086841106       11.081138669036534       # Si
235  235  2    153.62124504822236       104.42912086841106       5.0                      # Si
236  236  2    153.62124504822236       104.42912086841106       11.081138669036534       # Si
237  237  2    4.955376365591451        104.42912086841106       5.0                      # Si
238  238  2    4.955376365591451        104.42912086841106       11.081138669036534       # Si
239  239  2    14.866701311135273       104.42912086841106       5.0                      # Si
240  240  2    14.866701311135273       104.42912086841106       11.081138669036534       # Si
241  241  2    24.777454042318173       104.42912086841106       5.0                      # Si
242  242  2    24.777454042318173       104.42912086841106       11.081138669036534       # Si
243  243  2    34.688778987862          104.42912086841106       5.0                      # Si
244  244  2    34.688778987862          104.42912086841106       11.081138669036534       # Si
245  245  2    44.5995317190449         104.42912086841106       5.0                      # Si
246  246  2    44.5995317190449         104.42912086841106       11.081138669036534       # Si
247  247  2    54.51085666458873        104.42912086841106       5.0                      # Si
248  248  2    54.51085666458873        104.42912086841106       11.081138669036534       # Si
249  249  2    64.42160939577163        104.42912086841106       5.0                      # Si
250  250  2    64.42160939577163        104.42912086841106       11.081138669036534       # Si
251  251  2    74.33293434131544        104.42912086841106       5.0                      # Si
252  252  2    74.33293434131544        104.42912086841106       11.081138669036534       # Si
253  253  2    84.24368707249836        110.15126447763906       5.0                      # Si
254  254  2    84.24368707249836        110.15126447763906       11.081138669036534       # Si
255  255  2    94.15501201804216        110.15126447763906       5.0                      # Si
256  256  2    94.15501201804216        110.15126447763906       11.081138669036534       # Si
257  257  2    104.06576474922507       110.15126447763906       5.0                      # Si
258  258  2    104.06576474922507       110.15126447763906       11.081138669036534       # Si
259  259  2    113.9770896947689        110.15126447763906       5.0                      # Si
260  260  2    113.9770896947689        110.15126447763906       11.081138669036534       # Si
261  261  2    123.8878424259518        110.15126447763906       5.0                      # Si
262  262  2    123.8878424259518        110.15126447763906       11.081138669036534       # Si
263  263  2    133.79916737149563       110.15126447763906       5.0                      # Si
264  264  2    133.79916737149563       110.15126447763906       11.081138669036534       # Si
265  265  2    143.70992010267852       110.15126447763906       5.0                      # Si
266  266  2    143.70992010267852       110.15126447763906       11.081138669036534       # Si
267  267  2    153.62124504822236       110.15126447763906       5.0                      # Si
268  268  2    153.62124504822236       110.15126447763906       11.081138669036534       # Si
269  269  2    4.955376365591451        110.15126447763906       5.0                      # Si
270  270  2    4.955376365591451        110.15126447763906       11.081138669036534       # Si
271  271  2    14.866701311135273       110.15126447763906       5.0                      # Si
272  272  2    14.866701311135273       110.15126447763906       11.081138669036534       # Si
273  273  2    24.777454042318173       110.15126447763906       5.0                      # Si
274  274  2    24.777454042318173       110.15126447763906       11.081138669036534       # Si
275  275  2    34.688778987862          110.15126447763906       5.0                      # Si
276  276  2    34.688778987862          110.15126447763906       11.081138669036534       # Si
277  277  2    44.5995317190449         110.15126447763906       5.0                      # Si
278  278  2    44.5995317190449         110.15126447763906       11.081138669036534       # Si
279  279  2    54.51085666458873        110.15126447763906       5.0                      # Si
280  280  2    54.51085666458873        110.15126447763906       11.081138669036534       # Si
281  281  2    64.42160939577163        110.15126447763906       5.0                      # Si
282  282  2    64.42160939577163        110.15126447763906       11.081138669036534       # Si
283  283  2    74.33293434131544        110.15126447763906       5.0                      # Si
284  284  2    74.33293434131544        110.15126447763906       11.081138669036534       # Si
285  285  2    79.2883107069069         113.01233628225305       5.0                      # Si
286  286  2    79.2883107069069         113.01233628225305       11.081138669036534       # Si
287  287  2    89.19963565245072        113.01233628225305       5.0                      # Si
288  288  2    89.19963565245072        113.01233628225305       11.081138669036534       # Si
289  289  2    99.11038838363362        113.01233628225305       5.0                      # Si
290  290  2    99.11038838363362        113.01233628225305       11.081138669036534       # Si
291  291  2    109.02171332917746       113.01233628225305       5.0                      # Si
292  292  2    109.02171332917746       113.01233628225305       11.081138669036534       # Si
293  293  2    118.93246606036034       113.01233628225305       5.0                      # Si
294  294  2    118.93246606036034       113.01233628225305       11.081138669036534       # Si
295  295  2    128.8437910059042        113.01233628225305       5.0                      # Si
296  296  2    128.8437910059042        113.01233628225305       11.081138669036534       # Si
297  297  2    138.75454373708706       113.01233628225305       5.0                      # Si
298  298  2    138.75454373708706       113.01233628225305       11.081138669036534       # Si
299  299  2    148.66586868263087       113.01233628225305       5.0                      # Si
300  300  2    148.66586868263087       113.01233628225305       11.081138669036534       # Si
301  301  2    158.5766214138138        113.01233628225305       5.0                      # Si
302  302  2    158.5766214138138        113.01233628225305       11.081138669036534       # Si
303  303  2    9.911324945543823        113.01233628225305       5.0                      # Si
304  304  2    9.911324945543823        113.01233628225305       11.081138669036534       # Si
305  305  2    19.822077676726725       113.01233628225305       5.0                      # Si
306  306  2    19.822077676726725       113.01233628225305       11.081138669036534       # Si
307  307  2    29.733402622270546       113.01233628225305       5.0                      # Si
308  308  2    29.733402622270546       113.01233628225305       11.081138669036534       # Si
309  309  2    39.64415535345345        113.01233628225305       5.0                      # Si
310  310  2    39.64415535345345        113.01233628225305       11.081138669036534       # Si
311  311  2    49.55548029899727        113.01233628225305       5.0                      # Si