DATA FILE Produced from netmc results (cf David Morley)
1336 atoms
2004 bonds
4008 angles
0 dihedrals
0 impropers
1 atom types
1 bond types
1 angle types
0 dihedral types
0 improper types
0.00000 44.96374069 xlo xhi
0.00000 39.18545602 ylo yhi

# Pair Coeffs
#
# 1  Si

# Bond Coeffs
# 
# 1  Si-Si

# Angle Coeffs
# 
# 1  Si-Si-Si

 Masses

1 32.01000 # Si

 Atoms # molecular

1    1    1    28.53464333              20.84867211              0.0                     # Si
2    2    1    30.26406708              20.84867211              0.0                     # Si
3    3    1    31.993391                20.84867211              0.0                     # Si
4    4    1    33.72281476              20.84867211              0.0                     # Si
5    5    1    35.45213867              20.84867211              0.0                     # Si
6    6    1    37.18156243              20.84867211              0.0                     # Si
7    7    1    38.91088634              20.84867211              0.0                     # Si
8    8    1    40.6403101               20.84867211              0.0                     # Si
9    9    1    42.36963401              20.84867211              0.0                     # Si
10   10   1    44.09905777              20.84867211              0.0                     # Si
11   11   1    0.86466196               20.84867211              0.0                     # Si
12   12   1    2.59408571               20.84867211              0.0                     # Si
13   13   1    4.32340963               20.84867211              0.0                     # Si
14   14   1    6.05283339               20.84867211              0.0                     # Si
15   15   1    7.7821573                20.84867211              0.0                     # Si
16   16   1    9.51158106               20.84867211              0.0                     # Si
17   17   1    11.24090497              20.84867211              0.0                     # Si
18   18   1    12.97032873              20.84867211              0.0                     # Si
19   19   1    14.69965264              20.84867211              0.0                     # Si
20   20   1    16.4290764               20.84867211              0.0                     # Si
21   21   1    18.15840031              20.84867211              0.0                     # Si
22   22   1    27.66998137              21.35104975              0.0                     # Si
23   23   1    29.39940513              21.35104975              0.0                     # Si
24   24   1    31.12872904              21.35104975              0.0                     # Si
25   25   1    32.8581528               21.35104975              0.0                     # Si
26   26   1    34.58747671              21.35104975              0.0                     # Si
27   27   1    36.31690047              21.35104975              0.0                     # Si
28   28   1    38.04622438              21.35104975              0.0                     # Si
29   29   1    39.77564814              21.35104975              0.0                     # Si
30   30   1    41.50497205              21.35104975              0.0                     # Si
31   31   1    43.23439581              21.35104975              0.0                     # Si
32   32   1    44.96371972              21.35104975              0.0                     # Si
33   33   1    1.72942376               21.35104975              0.0                     # Si
34   34   1    3.45874767               21.35104975              0.0                     # Si
35   35   1    5.18817143               21.35104975              0.0                     # Si
36   36   1    6.91749534               21.35104975              0.0                     # Si
37   37   1    8.6469191                21.35104975              0.0                     # Si
38   38   1    10.37624301              21.35104975              0.0                     # Si
39   39   1    12.10566677              21.35104975              0.0                     # Si
40   40   1    13.83499068              21.35104975              0.0                     # Si
41   41   1    15.56441444              21.35104975              0.0                     # Si
42   42   1    17.29373836              21.35104975              0.0                     # Si
43   43   1    19.02316211              21.35104975              0.0                     # Si
44   44   1    27.66998137              22.35580504              0.0                     # Si
45   45   1    29.39940513              22.35580504              0.0                     # Si
46   46   1    31.12872904              22.35580504              0.0                     # Si
47   47   1    32.8581528               22.35580504              0.0                     # Si
48   48   1    34.58747671              22.35580504              0.0                     # Si
49   49   1    36.31690047              22.35580504              0.0                     # Si
50   50   1    38.04622438              22.35580504              0.0                     # Si
51   51   1    39.77564814              22.35580504              0.0                     # Si
52   52   1    41.50497205              22.35580504              0.0                     # Si
53   53   1    43.23439581              22.35580504              0.0                     # Si
54   54   1    44.96371972              22.35580504              0.0                     # Si
55   55   1    1.72942376               22.35580504              0.0                     # Si
56   56   1    3.45874767               22.35580504              0.0                     # Si
57   57   1    5.18817143               22.35580504              0.0                     # Si
58   58   1    6.91749534               22.35580504              0.0                     # Si
59   59   1    8.6469191                22.35580504              0.0                     # Si
60   60   1    10.37624301              22.35580504              0.0                     # Si
61   61   1    12.10566677              22.35580504              0.0                     # Si
62   62   1    13.83499068              22.35580504              0.0                     # Si
63   63   1    15.56441444              22.35580504              0.0                     # Si
64   64   1    17.29373836              22.35580504              0.0                     # Si
65   65   1    19.02316211              22.35580504              0.0                     # Si
66   66   1    23.34657174              22.85818268              0.0                     # Si
67   67   1    25.07589565              22.85818268              0.0                     # Si
68   68   1    26.80531941              22.85818268              0.0                     # Si
69   69   1    28.53464333              22.85818268              0.0                     # Si
70   70   1    30.26406708              22.85818268              0.0                     # Si
71   71   1    31.993391                22.85818268              0.0                     # Si
72   72   1    33.72281476              22.85818268              0.0                     # Si
73   73   1    35.45213867              22.85818268              0.0                     # Si
74   74   1    37.18156243              22.85818268              0.0                     # Si
75   75   1    38.91088634              22.85818268              0.0                     # Si
76   76   1    40.6403101               22.85818268              0.0                     # Si
77   77   1    42.36963401              22.85818268              0.0                     # Si
78   78   1    44.09905777              22.85818268              0.0                     # Si
79   79   1    0.86466196               22.85818268              0.0                     # Si
80   80   1    2.59408571               22.85818268              0.0                     # Si
81   81   1    4.32340963               22.85818268              0.0                     # Si
82   82   1    6.05283339               22.85818268              0.0                     # Si
83   83   1    7.7821573                22.85818268              0.0                     # Si
84   84   1    9.51158106               22.85818268              0.0                     # Si
85   85   1    11.24090497              22.85818268              0.0                     # Si
86   86   1    12.97032873              22.85818268              0.0                     # Si
87   87   1    14.69965264              22.85818268              0.0                     # Si
88   88   1    16.4290764               22.85818268              0.0                     # Si
89   89   1    18.15840031              22.85818268              0.0                     # Si
90   90   1    19.88782407              22.85818268              0.0                     # Si
91   91   1    21.61714798              22.85818268              0.0                     # Si
92   92   1    23.34657174              23.86293796              0.0                     # Si
93   93   1    25.07589565              23.86293796              0.0                     # Si
94   94   1    26.80531941              23.86293796              0.0                     # Si
95   95   1    28.53464333              23.86293796              0.0                     # Si
96   96   1    30.26406708              23.86293796              0.0                     # Si
97   97   1    31.993391                23.86293796              0.0                     # Si
98   98   1    33.72281476              23.86293796              0.0                     # Si
99   99   1    35.45213867              23.86293796              0.0                     # Si
100  100  1    37.18156243              23.86293796              0.0                     # Si
101  101  1    38.91088634              23.86293796              0.0                     # Si
102  102  1    40.6403101               23.86293796              0.0                     # Si
103  103  1    42.36963401              23.86293796              0.0                     # Si
104  104  1    44.09905777              23.86293796              0.0                     # Si
105  105  1    0.86466196               23.86293796              0.0                     # Si
106  106  1    2.59408571               23.86293796              0.0                     # Si
107  107  1    4.32340963               23.86293796              0.0                     # Si
108  108  1    6.05283339               23.86293796              0.0                     # Si
109  109  1    7.7821573                23.86293796              0.0                     # Si
110  110  1    9.51158106               23.86293796              0.0                     # Si
111  111  1    11.24090497              23.86293796              0.0                     # Si
112  112  1    12.97032873              23.86293796              0.0                     # Si
113  113  1    14.69965264              23.86293796              0.0                     # Si
114  114  1    16.4290764               23.86293796              0.0                     # Si
115  115  1    18.15840031              23.86293796              0.0                     # Si
116  116  1    19.88782407              23.86293796              0.0                     # Si
117  117  1    21.61714798              23.86293796              0.0                     # Si
118  118  1    22.48190979              24.3653156               0.0                     # Si
119  119  1    24.2112337               24.3653156               0.0                     # Si
120  120  1    25.94065746              24.3653156               0.0                     # Si
121  121  1    27.66998137              24.3653156               0.0                     # Si
122  122  1    29.39940513              24.3653156               0.0                     # Si
123  123  1    31.12872904              24.3653156               0.0                     # Si
124  124  1    32.8581528               24.3653156               0.0                     # Si
125  125  1    34.58747671              24.3653156               0.0                     # Si
126  126  1    36.31690047              24.3653156               0.0                     # Si
127  127  1    38.04622438              24.3653156               0.0                     # Si
128  128  1    39.77564814              24.3653156               0.0                     # Si
129  129  1    41.50497205              24.3653156               0.0                     # Si
130  130  1    43.23439581              24.3653156               0.0                     # Si
131  131  1    44.96371972              24.3653156               0.0                     # Si
132  132  1    1.72942376               24.3653156               0.0                     # Si
133  133  1    3.45874767               24.3653156               0.0                     # Si
134  134  1    5.18817143               24.3653156               0.0                     # Si
135  135  1    6.91749534               24.3653156               0.0                     # Si
136  136  1    8.6469191                24.3653156               0.0                     # Si
137  137  1    10.37624301              24.3653156               0.0                     # Si
138  138  1    12.10566677              24.3653156               0.0                     # Si
139  139  1    13.83499068              24.3653156               0.0                     # Si
140  140  1    15.56441444              24.3653156               0.0                     # Si
141  141  1    17.29373836              24.3653156               0.0                     # Si
142  142  1    19.02316211              24.3653156               0.0                     # Si
143  143  1    20.75248603              24.3653156               0.0                     # Si
144  144  1    24.2112337               25.37007089              0.0                     # Si
145  145  1    25.94065746              25.37007089              0.0                     # Si
146  146  1    27.66998137              25.37007089              0.0                     # Si
147  147  1    29.39940513              25.37007089              0.0                     # Si
148  148  1    31.12872904              25.37007089              0.0                     # Si
149  149  1    32.8581528               25.37007089              0.0                     # Si
150  150  1    34.58747671              25.37007089              0.0                     # Si
151  151  1    36.31690047              25.37007089              0.0                     # Si
152  152  1    38.04622438              25.37007089              0.0                     # Si
153  153  1    39.77564814              25.37007089              0.0                     # Si
154  154  1    41.50497205              25.37007089              0.0                     # Si
155  155  1    43.23439581              25.37007089              0.0                     # Si
156  156  1    44.96371972              25.37007089              0.0                     # Si
157  157  1    1.72942376               25.37007089              0.0                     # Si
158  158  1    3.45874767               25.37007089              0.0                     # Si
159  159  1    5.18817143               25.37007089              0.0                     # Si
160  160  1    6.91749534               25.37007089              0.0                     # Si
161  161  1    8.6469191                25.37007089              0.0                     # Si
162  162  1    10.37624301              25.37007089              0.0                     # Si
163  163  1    12.10566677              25.37007089              0.0                     # Si
164  164  1    13.83499068              25.37007089              0.0                     # Si
165  165  1    15.56441444              25.37007089              0.0                     # Si
166  166  1    17.29373836              25.37007089              0.0                     # Si
167  167  1    19.02316211              25.37007089              0.0                     # Si
168  168  1    20.75248603              25.37007089              0.0                     # Si
169  169  1    22.48190979              25.37007089              0.0                     # Si
170  170  1    23.34657174              25.87244853              0.0                     # Si
171  171  1    25.07589565              25.87244853              0.0                     # Si
172  172  1    26.80531941              25.87244853              0.0                     # Si
173  173  1    28.53464333              25.87244853              0.0                     # Si
174  174  1    30.26406708              25.87244853              0.0                     # Si
175  175  1    31.993391                25.87244853              0.0                     # Si
176  176  1    33.72281476              25.87244853              0.0                     # Si
177  177  1    35.45213867              25.87244853              0.0                     # Si
178  178  1    37.18156243              25.87244853              0.0                     # Si
179  179  1    38.91088634              25.87244853              0.0                     # Si
180  180  1    40.6403101               25.87244853              0.0                     # Si
181  181  1    42.36963401              25.87244853              0.0                     # Si
182  182  1    44.09905777              25.87244853              0.0                     # Si
183  183  1    0.86466196               25.87244853              0.0                     # Si
184  184  1    2.59408571               25.87244853              0.0                     # Si
185  185  1    4.32340963               25.87244853              0.0                     # Si
186  186  1    6.05283339               25.87244853              0.0                     # Si
187  187  1    7.7821573                25.87244853              0.0                     # Si
188  188  1    9.51158106               25.87244853              0.0                     # Si
189  189  1    11.24090497              25.87244853              0.0                     # Si
190  190  1    12.97032873              25.87244853              0.0                     # Si
191  191  1    14.69965264              25.87244853              0.0                     # Si
192  192  1    16.4290764               25.87244853              0.0                     # Si
193  193  1    18.15840031              25.87244853              0.0                     # Si
194  194  1    19.88782407              25.87244853              0.0                     # Si
195  195  1    21.61714798              25.87244853              0.0                     # Si
196  196  1    23.34657174              26.87720381              0.0                     # Si
197  197  1    25.07589565              26.87720381              0.0                     # Si
198  198  1    26.80531941              26.87720381              0.0                     # Si
199  199  1    28.53464333              26.87720381              0.0                     # Si
200  200  1    30.26406708              26.87720381              0.0                     # Si
201  201  1    31.993391                26.87720381              0.0                     # Si
202  202  1    33.72281476              26.87720381              0.0                     # Si
203  203  1    35.45213867              26.87720381              0.0                     # Si
204  204  1    37.18156243              26.87720381              0.0                     # Si
205  205  1    38.91088634              26.87720381              0.0                     # Si
206  206  1    40.6403101               26.87720381              0.0                     # Si
207  207  1    42.36963401              26.87720381              0.0                     # Si
208  208  1    44.09905777              26.87720381              0.0                     # Si
209  209  1    0.86466196               26.87720381              0.0                     # Si
210  210  1    2.59408571               26.87720381              0.0                     # Si
211  211  1    4.32340963               26.87720381              0.0                     # Si
212  212  1    6.05283339               26.87720381              0.0                     # Si
213  213  1    7.7821573                26.87720381              0.0                     # Si
214  214  1    9.51158106               26.87720381              0.0                     # Si
215  215  1    11.24090497              26.87720381              0.0                     # Si
216  216  1    12.97032873              26.87720381              0.0                     # Si
217  217  1    14.69965264              26.87720381              0.0                     # Si
218  218  1    16.4290764               26.87720381              0.0                     # Si
219  219  1    18.15840031              26.87720381              0.0                     # Si
220  220  1    19.88782407              26.87720381              0.0                     # Si
221  221  1    21.61714798              26.87720381              0.0                     # Si
222  222  1    22.48190979              27.37958145              0.0                     # Si
223  223  1    24.2112337               27.37958145              0.0                     # Si
224  224  1    25.94065746              27.37958145              0.0                     # Si
225  225  1    27.66998137              27.37958145              0.0                     # Si
226  226  1    29.39940513              27.37958145              0.0                     # Si
227  227  1    31.12872904              27.37958145              0.0                     # Si
228  228  1    32.8581528               27.37958145              0.0                     # Si
229  229  1    34.58747671              27.37958145              0.0                     # Si
230  230  1    36.31690047              27.37958145              0.0                     # Si
231  231  1    38.04622438              27.37958145              0.0                     # Si
232  232  1    39.77564814              27.37958145              0.0                     # Si
233  233  1    41.50497205              27.37958145              0.0                     # Si
234  234  1    43.23439581              27.37958145              0.0                     # Si
235  235  1    44.96371972              27.37958145              0.0                     # Si
236  236  1    1.72942376               27.37958145              0.0                     # Si
237  237  1    3.45874767               27.37958145              0.0                     # Si
238  238  1    5.18817143               27.37958145              0.0                     # Si
239  239  1    6.91749534               27.37958145              0.0                     # Si
240  240  1    8.6469191                27.37958145              0.0                     # Si
241  241  1    10.37624301              27.37958145              0.0                     # Si
242  242  1    12.10566677              27.37958145              0.0                     # Si
243  243  1    13.83499068              27.37958145              0.0                     # Si
244  244  1    15.56441444              27.37958145              0.0                     # Si
245  245  1    17.29373836              27.37958145              0.0                     # Si
246  246  1    19.02316211              27.37958145              0.0                     # Si
247  247  1    20.75248603              27.37958145              0.0                     # Si
248  248  1    24.2112337               28.38433673              0.0                     # Si
249  249  1    25.94065746              28.38433673              0.0                     # Si
250  250  1    27.66998137              28.38433673              0.0                     # Si
251  251  1    29.39940513              28.38433673              0.0                     # Si
252  252  1    31.12872904              28.38433673              0.0                     # Si
253  253  1    32.8581528               28.38433673              0.0                     # Si
254  254  1    34.58747671              28.38433673              0.0                     # Si
255  255  1    36.31690047              28.38433673              0.0                     # Si
256  256  1    38.04622438              28.38433673              0.0                     # Si
257  257  1    39.77564814              28.38433673              0.0                     # Si
258  258  1    41.50497205              28.38433673              0.0                     # Si
259  259  1    43.23439581              28.38433673              0.0                     # Si
260  260  1    44.96371972              28.38433673              0.0                     # Si
261  261  1    1.72942376               28.38433673              0.0                     # Si
262  262  1    3.45874767               28.38433673              0.0                     # Si
263  263  1    5.18817143               28.38433673              0.0                     # Si
264  264  1    6.91749534               28.38433673              0.0                     # Si
265  265  1    8.6469191                28.38433673              0.0                     # Si
266  266  1    10.37624301              28.38433673              0.0                     # Si
267  267  1    12.10566677              28.38433673              0.0                     # Si
268  268  1    13.83499068              28.38433673              0.0                     # Si
269  269  1    15.56441444              28.38433673              0.0                     # Si
270  270  1    17.29373836              28.38433673              0.0                     # Si
271  271  1    19.02316211              28.38433673              0.0                     # Si
272  272  1    20.75248603              28.38433673              0.0                     # Si
273  273  1    22.48190979              28.38433673              0.0                     # Si
274  274  1    23.34657174              28.88671437              0.0                     # Si
275  275  1    25.07589565              28.88671437              0.0                     # Si
276  276  1    26.80531941              28.88671437              0.0                     # Si
277  277  1    28.53464333              28.88671437              0.0                     # Si
278  278  1    30.26406708              28.88671437              0.0                     # Si
279  279  1    31.993391                28.88671437              0.0                     # Si
280  280  1    33.72281476              28.88671437              0.0                     # Si
281  281  1    35.45213867              28.88671437              0.0                     # Si
282  282  1    37.18156243              28.88671437              0.0                     # Si
283  283  1    38.91088634              28.88671437              0.0                     # Si
284  284  1    40.6403101               28.88671437              0.0                     # Si
285  285  1    42.36963401              28.88671437              0.0                     # Si
286  286  1    44.09905777              28.88671437              0.0                     # Si
287  287  1    0.86466196               28.88671437              0.0                     # Si
288  288  1    2.59408571               28.88671437              0.0                     # Si
289  289  1    4.32340963               28.88671437              0.0                     # Si
290  290  1    6.05283339               28.88671437              0.0                     # Si
291  291  1    7.7821573                28.88671437              0.0                     # Si
292  292  1    9.51158106               28.88671437              0.0                     # Si
293  293  1    11.24090497              28.88671437              0.0                     # Si
294  294  1    12.97032873              28.88671437              0.0                     # Si
295  295  1    14.69965264              28.88671437              0.0                     # Si
296  296  1    16.4290764               28.88671437              0.0                     # Si
297  297  1    18.15840031              28.88671437              0.0                     # Si
298  298  1    19.88782407              28.88671437              0.0                     # Si
299  299  1    21.61714798              28.88671437              0.0                     # Si
300  300  1    23.34657174              29.89146966              0.0                     # Si
301  301  1    25.07589565              29.89146966              0.0                     # Si
302  302  1    26.80531941              29.89146966              0.0                     # Si
303  303  1    28.53464333              29.89146966              0.0                     # Si
304  304  1    30.26406708              29.89146966              0.0                     # Si
305  305  1    31.993391                29.89146966              0.0                     # Si
306  306  1    33.72281476              29.89146966              0.0                     # Si
307  307  1    35.45213867              29.89146966              0.0                     # Si
308  308  1    37.18156243              29.89146966              0.0                     # Si
309  309  1    38.91088634              29.89146966              0.0                     # Si
310  310  1    40.6403101               29.89146966              0.0                     # Si
311  311  1    42.36963401              29.89146966              0.0                     # Si
312  312  1    44.09905777              29.89146966              0.0                     # Si
313  313  1    0.86466196               29.89146966              0.0                     # Si
314  314  1    2.59408571               29.89146966              0.0                     # Si
315  315  1    4.32340963               29.89146966              0.0                     # Si