DATA FILE Produced from netmc results (cf David Morley)
3340 atoms
8016 bonds
0 angles
0 dihedrals
0 impropers
2 atom types
2 bond types
0 angle types
0 dihedral types
0 improper types
0.00000 257.792976006316 xlo xhi
0.00000 224.66403303066488 ylo yhi

# Pair Coeffs
#
# 1  O
# 2  Si

# Bond Coeffs
# 
# 1  O-O
# 2  Si-O
# 3  O-O rep
# 4  Si-Si rep

 Masses

1 28.10000 # O 
2 32.01000 # Si

 Atoms # molecular

1    1    2    163.59916925140232       119.53278678640069       5.0                      # Si
2    2    2    173.5145652671003        119.53278678640069       5.0                      # Si
3    3    2    183.42938892221616       119.53278678640069       5.0                      # Si
4    4    2    193.34478499524766       119.53278678640069       5.0                      # Si
5    5    2    203.25960859303          119.53278678640069       5.0                      # Si
6    6    2    213.1750046660615        119.53278678640069       5.0                      # Si
7    7    2    223.08982826384386       119.53278678640069       5.0                      # Si
8    8    2    233.0052243368754        119.53278678640069       5.0                      # Si
9    9    2    242.92004793465773       119.53278678640069       5.0                      # Si
10   10   2    252.83544400768926       119.53278678640069       5.0                      # Si
11   11   2    4.957411827557939        119.53278678640069       5.0                      # Si
12   12   2    14.872807843255917       119.53278678640069       5.0                      # Si
13   13   2    24.78763149837179        119.53278678640069       5.0                      # Si
14   14   2    34.7030275714033         119.53278678640069       5.0                      # Si
15   15   2    44.61785116918565        119.53278678640069       5.0                      # Si
16   16   2    54.53324724221715        119.53278678640069       5.0                      # Si
17   17   2    64.44807083999952        119.53278678640069       5.0                      # Si
18   18   2    74.36346691303102        119.53278678640069       5.0                      # Si
19   19   2    84.27829051081336        119.53278678640069       5.0                      # Si
20   20   2    94.19368658384487        119.53278678640069       5.0                      # Si
21   21   2    104.10851018162722       119.53278678640069       5.0                      # Si
22   22   2    158.64175742384435       122.41309489482802       5.0                      # Si
23   23   2    168.55715349687588       122.41309489482802       5.0                      # Si
24   24   2    178.47197709465823       122.41309489482802       5.0                      # Si
25   25   2    188.38737316768973       122.41309489482802       5.0                      # Si
26   26   2    198.30219676547208       122.41309489482802       5.0                      # Si
27   27   2    208.21759283850358       122.41309489482802       5.0                      # Si
28   28   2    218.13241643628592       122.41309489482802       5.0                      # Si
29   29   2    228.04781250931745       122.41309489482802       5.0                      # Si
30   30   2    237.9626361070998        122.41309489482802       5.0                      # Si
31   31   2    247.8780321801313        122.41309489482802       5.0                      # Si
32   32   2    257.79285577791364       122.41309489482802       5.0                      # Si
33   33   2    9.915396073031502        122.41309489482802       5.0                      # Si
34   34   2    19.830219670813857       122.41309489482802       5.0                      # Si
35   35   2    29.745615743845356       122.41309489482802       5.0                      # Si
36   36   2    39.660439341627715       122.41309489482802       5.0                      # Si
37   37   2    49.57583541465922        122.41309489482802       5.0                      # Si
38   38   2    59.49065901244157        122.41309489482802       5.0                      # Si
39   39   2    69.40605508547307        122.41309489482802       5.0                      # Si
40   40   2    79.32087868325543        122.41309489482802       5.0                      # Si
41   41   2    89.23627475628693        122.41309489482802       5.0                      # Si
42   42   2    99.1510984114028         122.41309489482802       5.0                      # Si
43   43   2    109.06649442710079       122.41309489482802       5.0                      # Si
44   44   2    158.64175742384435       128.17371116901614       5.0                      # Si
45   45   2    168.55715349687588       128.17371116901614       5.0                      # Si
46   46   2    178.47197709465823       128.17371116901614       5.0                      # Si
47   47   2    188.38737316768973       128.17371116901614       5.0                      # Si
48   48   2    198.30219676547208       128.17371116901614       5.0                      # Si
49   49   2    208.21759283850358       128.17371116901614       5.0                      # Si
50   50   2    218.13241643628592       128.17371116901614       5.0                      # Si
51   51   2    228.04781250931745       128.17371116901614       5.0                      # Si
52   52   2    237.9626361070998        128.17371116901614       5.0                      # Si
53   53   2    247.8780321801313        128.17371116901614       5.0                      # Si
54   54   2    257.79285577791364       128.17371116901614       5.0                      # Si
55   55   2    9.915396073031502        128.17371116901614       5.0                      # Si
56   56   2    19.830219670813857       128.17371116901614       5.0                      # Si
57   57   2    29.745615743845356       128.17371116901614       5.0                      # Si
58   58   2    39.660439341627715       128.17371116901614       5.0                      # Si
59   59   2    49.57583541465922        128.17371116901614       5.0                      # Si
60   60   2    59.49065901244157        128.17371116901614       5.0                      # Si
61   61   2    69.40605508547307        128.17371116901614       5.0                      # Si
62   62   2    79.32087868325543        128.17371116901614       5.0                      # Si
63   63   2    89.23627475628693        128.17371116901614       5.0                      # Si
64   64   2    99.1510984114028         128.17371116901614       5.0                      # Si
65   65   2    109.06649442710079       128.17371116901614       5.0                      # Si
66   66   2    133.8541259254726        131.05401927744344       5.0                      # Si
67   67   2    143.76894952325492       131.05401927744344       5.0                      # Si
68   68   2    153.68434559628642       131.05401927744344       5.0                      # Si
69   69   2    163.59916925140232       131.05401927744344       5.0                      # Si
70   70   2    173.5145652671003        131.05401927744344       5.0                      # Si
71   71   2    183.42938892221616       131.05401927744344       5.0                      # Si
72   72   2    193.34478499524766       131.05401927744344       5.0                      # Si
73   73   2    203.25960859303          131.05401927744344       5.0                      # Si
74   74   2    213.1750046660615        131.05401927744344       5.0                      # Si
75   75   2    223.08982826384386       131.05401927744344       5.0                      # Si
76   76   2    233.0052243368754        131.05401927744344       5.0                      # Si
77   77   2    242.92004793465773       131.05401927744344       5.0                      # Si
78   78   2    252.83544400768926       131.05401927744344       5.0                      # Si
79   79   2    4.957411827557939        131.05401927744344       5.0                      # Si
80   80   2    14.872807843255917       131.05401927744344       5.0                      # Si
81   81   2    24.78763149837179        131.05401927744344       5.0                      # Si
82   82   2    34.7030275714033         131.05401927744344       5.0                      # Si
83   83   2    44.61785116918565        131.05401927744344       5.0                      # Si
84   84   2    54.53324724221715        131.05401927744344       5.0                      # Si
85   85   2    64.44807083999952        131.05401927744344       5.0                      # Si
86   86   2    74.36346691303102        131.05401927744344       5.0                      # Si
87   87   2    84.27829051081336        131.05401927744344       5.0                      # Si
88   88   2    94.19368658384487        131.05401927744344       5.0                      # Si
89   89   2    104.10851018162722       131.05401927744344       5.0                      # Si
90   90   2    114.02390625465873       131.05401927744344       5.0                      # Si
91   91   2    123.93872985244107       131.05401927744344       5.0                      # Si
92   92   2    133.8541259254726        136.81463549429805       5.0                      # Si
93   93   2    143.76894952325492       136.81463549429805       5.0                      # Si
94   94   2    153.68434559628642       136.81463549429805       5.0                      # Si
95   95   2    163.59916925140232       136.81463549429805       5.0                      # Si
96   96   2    173.5145652671003        136.81463549429805       5.0                      # Si
97   97   2    183.42938892221616       136.81463549429805       5.0                      # Si
98   98   2    193.34478499524766       136.81463549429805       5.0                      # Si
99   99   2    203.25960859303          136.81463549429805       5.0                      # Si
100  100  2    213.1750046660615        136.81463549429805       5.0                      # Si
101  101  2    223.08982826384386       136.81463549429805       5.0                      # Si
102  102  2    233.0052243368754        136.81463549429805       5.0                      # Si
103  103  2    242.92004793465773       136.81463549429805       5.0                      # Si
104  104  2    252.83544400768926       136.81463549429805       5.0                      # Si
105  105  2    4.957411827557939        136.81463549429805       5.0                      # Si
106  106  2    14.872807843255917       136.81463549429805       5.0                      # Si
107  107  2    24.78763149837179        136.81463549429805       5.0                      # Si
108  108  2    34.7030275714033         136.81463549429805       5.0                      # Si
109  109  2    44.61785116918565        136.81463549429805       5.0                      # Si
110  110  2    54.53324724221715        136.81463549429805       5.0                      # Si
111  111  2    64.44807083999952        136.81463549429805       5.0                      # Si
112  112  2    74.36346691303102        136.81463549429805       5.0                      # Si
113  113  2    84.27829051081336        136.81463549429805       5.0                      # Si
114  114  2    94.19368658384487        136.81463549429805       5.0                      # Si
115  115  2    104.10851018162722       136.81463549429805       5.0                      # Si
116  116  2    114.02390625465873       136.81463549429805       5.0                      # Si
117  117  2    123.93872985244107       136.81463549429805       5.0                      # Si
118  118  2    128.89671415524816       139.69494360272535       5.0                      # Si
119  119  2    138.81153775303054       139.69494360272535       5.0                      # Si
120  120  2    148.72693382606204       139.69494360272535       5.0                      # Si
121  121  2    158.64175742384435       139.69494360272535       5.0                      # Si
122  122  2    168.55715349687588       139.69494360272535       5.0                      # Si
123  123  2    178.47197709465823       139.69494360272535       5.0                      # Si
124  124  2    188.38737316768973       139.69494360272535       5.0                      # Si
125  125  2    198.30219676547208       139.69494360272535       5.0                      # Si
126  126  2    208.21759283850358       139.69494360272535       5.0                      # Si
127  127  2    218.13241643628592       139.69494360272535       5.0                      # Si
128  128  2    228.04781250931745       139.69494360272535       5.0                      # Si
129  129  2    237.9626361070998        139.69494360272535       5.0                      # Si
130  130  2    247.8780321801313        139.69494360272535       5.0                      # Si
131  131  2    257.79285577791364       139.69494360272535       5.0                      # Si
132  132  2    9.915396073031502        139.69494360272535       5.0                      # Si
133  133  2    19.830219670813857       139.69494360272535       5.0                      # Si
134  134  2    29.745615743845356       139.69494360272535       5.0                      # Si
135  135  2    39.660439341627715       139.69494360272535       5.0                      # Si
136  136  2    49.57583541465922        139.69494360272535       5.0                      # Si
137  137  2    59.49065901244157        139.69494360272535       5.0                      # Si
138  138  2    69.40605508547307        139.69494360272535       5.0                      # Si
139  139  2    79.32087868325543        139.69494360272535       5.0                      # Si
140  140  2    89.23627475628693        139.69494360272535       5.0                      # Si
141  141  2    99.1510984114028         139.69494360272535       5.0                      # Si
142  142  2    109.06649442710079       139.69494360272535       5.0                      # Si
143  143  2    118.98131808221666       139.69494360272535       5.0                      # Si
144  144  2    138.81153775303054       145.4555598769135        5.0                      # Si
145  145  2    148.72693382606204       145.4555598769135        5.0                      # Si
146  146  2    158.64175742384435       145.4555598769135        5.0                      # Si
147  147  2    168.55715349687588       145.4555598769135        5.0                      # Si
148  148  2    178.47197709465823       145.4555598769135        5.0                      # Si
149  149  2    188.38737316768973       145.4555598769135        5.0                      # Si
150  150  2    198.30219676547208       145.4555598769135        5.0                      # Si
151  151  2    208.21759283850358       145.4555598769135        5.0                      # Si
152  152  2    218.13241643628592       145.4555598769135        5.0                      # Si
153  153  2    228.04781250931745       145.4555598769135        5.0                      # Si
154  154  2    237.9626361070998        145.4555598769135        5.0                      # Si
155  155  2    247.8780321801313        145.4555598769135        5.0                      # Si
156  156  2    257.79285577791364       145.4555598769135        5.0                      # Si
157  157  2    9.915396073031502        145.4555598769135        5.0                      # Si
158  158  2    19.830219670813857       145.4555598769135        5.0                      # Si
159  159  2    29.745615743845356       145.4555598769135        5.0                      # Si
160  160  2    39.660439341627715       145.4555598769135        5.0                      # Si
161  161  2    49.57583541465922        145.4555598769135        5.0                      # Si
162  162  2    59.49065901244157        145.4555598769135        5.0                      # Si
163  163  2    69.40605508547307        145.4555598769135        5.0                      # Si
164  164  2    79.32087868325543        145.4555598769135        5.0                      # Si
165  165  2    89.23627475628693        145.4555598769135        5.0                      # Si
166  166  2    99.1510984114028         145.4555598769135        5.0                      # Si
167  167  2    109.06649442710079       145.4555598769135        5.0                      # Si
168  168  2    118.98131808221666       145.4555598769135        5.0                      # Si
169  169  2    128.89671415524816       145.4555598769135        5.0                      # Si
170  170  2    133.8541259254726        148.33586798534077       5.0                      # Si
171  171  2    143.76894952325492       148.33586798534077       5.0                      # Si
172  172  2    153.68434559628642       148.33586798534077       5.0                      # Si
173  173  2    163.59916925140232       148.33586798534077       5.0                      # Si
174  174  2    173.5145652671003        148.33586798534077       5.0                      # Si
175  175  2    183.42938892221616       148.33586798534077       5.0                      # Si
176  176  2    193.34478499524766       148.33586798534077       5.0                      # Si
177  177  2    203.25960859303          148.33586798534077       5.0                      # Si
178  178  2    213.1750046660615        148.33586798534077       5.0                      # Si
179  179  2    223.08982826384386       148.33586798534077       5.0                      # Si
180  180  2    233.0052243368754        148.33586798534077       5.0                      # Si
181  181  2    242.92004793465773       148.33586798534077       5.0                      # Si
182  182  2    252.83544400768926       148.33586798534077       5.0                      # Si
183  183  2    4.957411827557939        148.33586798534077       5.0                      # Si
184  184  2    14.872807843255917       148.33586798534077       5.0                      # Si
185  185  2    24.78763149837179        148.33586798534077       5.0                      # Si
186  186  2    34.7030275714033         148.33586798534077       5.0                      # Si
187  187  2    44.61785116918565        148.33586798534077       5.0                      # Si
188  188  2    54.53324724221715        148.33586798534077       5.0                      # Si
189  189  2    64.44807083999952        148.33586798534077       5.0                      # Si
190  190  2    74.36346691303102        148.33586798534077       5.0                      # Si
191  191  2    84.27829051081336        148.33586798534077       5.0                      # Si
192  192  2    94.19368658384487        148.33586798534077       5.0                      # Si
193  193  2    104.10851018162722       148.33586798534077       5.0                      # Si
194  194  2    114.02390625465873       148.33586798534077       5.0                      # Si
195  195  2    123.93872985244107       148.33586798534077       5.0                      # Si
196  196  2    133.8541259254726        154.0964842021954        5.0                      # Si
197  197  2    143.76894952325492       154.0964842021954        5.0                      # Si
198  198  2    153.68434559628642       154.0964842021954        5.0                      # Si
199  199  2    163.59916925140232       154.0964842021954        5.0                      # Si
200  200  2    173.5145652671003        154.0964842021954        5.0                      # Si
201  201  2    183.42938892221616       154.0964842021954        5.0                      # Si
202  202  2    193.34478499524766       154.0964842021954        5.0                      # Si
203  203  2    203.25960859303          154.0964842021954        5.0                      # Si
204  204  2    213.1750046660615        154.0964842021954        5.0                      # Si
205  205  2    223.08982826384386       154.0964842021954        5.0                      # Si
206  206  2    233.0052243368754        154.0964842021954        5.0                      # Si
207  207  2    242.92004793465773       154.0964842021954        5.0                      # Si
208  208  2    252.83544400768926       154.0964842021954        5.0                      # Si
209  209  2    4.957411827557939        154.0964842021954        5.0                      # Si
210  210  2    14.872807843255917       154.0964842021954        5.0                      # Si
211  211  2    24.78763149837179        154.0964842021954        5.0                      # Si
212  212  2    34.7030275714033         154.0964842021954        5.0                      # Si
213  213  2    44.61785116918565        154.0964842021954        5.0                      # Si
214  214  2    54.53324724221715        154.0964842021954        5.0                      # Si
215  215  2    64.44807083999952        154.0964842021954        5.0                      # Si
216  216  2    74.36346691303102        154.0964842021954        5.0                      # Si
217  217  2    84.27829051081336        154.0964842021954        5.0                      # Si
218  218  2    94.19368658384487        154.0964842021954        5.0                      # Si
219  219  2    104.10851018162722       154.0964842021954        5.0                      # Si
220  220  2    114.02390625465873       154.0964842021954        5.0                      # Si
221  221  2    123.93872985244107       154.0964842021954        5.0                      # Si
222  222  2    128.89671415524816       156.9767923106227        5.0                      # Si
223  223  2    138.81153775303054       156.9767923106227        5.0                      # Si
224  224  2    148.72693382606204       156.9767923106227        5.0                      # Si
225  225  2    158.64175742384435       156.9767923106227        5.0                      # Si
226  226  2    168.55715349687588       156.9767923106227        5.0                      # Si
227  227  2    178.47197709465823       156.9767923106227        5.0                      # Si
228  228  2    188.38737316768973       156.9767923106227        5.0                      # Si
229  229  2    198.30219676547208       156.9767923106227        5.0                      # Si
230  230  2    208.21759283850358       156.9767923106227        5.0                      # Si
231  231  2    218.13241643628592       156.9767923106227        5.0                      # Si
232  232  2    228.04781250931745       156.9767923106227        5.0                      # Si
233  233  2    237.9626361070998        156.9767923106227        5.0                      # Si
234  234  2    247.8780321801313        156.9767923106227        5.0                      # Si
235  235  2    257.79285577791364       156.9767923106227        5.0                      # Si
236  236  2    9.915396073031502        156.9767923106227        5.0                      # Si
237  237  2    19.830219670813857       156.9767923106227        5.0                      # Si
238  238  2    29.745615743845356       156.9767923106227        5.0                      # Si
239  239  2    39.660439341627715       156.9767923106227        5.0                      # Si
240  240  2    49.57583541465922        156.9767923106227        5.0                      # Si
241  241  2    59.49065901244157        156.9767923106227        5.0                      # Si
242  242  2    69.40605508547307        156.9767923106227        5.0                      # Si
243  243  2    79.32087868325543        156.9767923106227        5.0                      # Si
244  244  2    89.23627475628693        156.9767923106227        5.0                      # Si
245  245  2    99.1510984114028         156.9767923106227        5.0                      # Si
246  246  2    109.06649442710079       156.9767923106227        5.0                      # Si
247  247  2    118.98131808221666       156.9767923106227        5.0                      # Si
248  248  2    138.81153775303054       162.7374085274773        5.0                      # Si
249  249  2    148.72693382606204       162.7374085274773        5.0                      # Si
250  250  2    158.64175742384435       162.7374085274773        5.0                      # Si
251  251  2    168.55715349687588       162.7374085274773        5.0                      # Si
252  252  2    178.47197709465823       162.7374085274773        5.0                      # Si
253  253  2    188.38737316768973       162.7374085274773        5.0                      # Si
254  254  2    198.30219676547208       162.7374085274773        5.0                      # Si
255  255  2    208.21759283850358       162.7374085274773        5.0                      # Si
256  256  2    218.13241643628592       162.7374085274773        5.0                      # Si
257  257  2    228.04781250931745       162.7374085274773        5.0                      # Si
258  258  2    237.9626361070998        162.7374085274773        5.0                      # Si
259  259  2    247.8780321801313        162.7374085274773        5.0                      # Si
260  260  2    257.79285577791364       162.7374085274773        5.0                      # Si
261  261  2    9.915396073031502        162.7374085274773        5.0                      # Si
262  262  2    19.830219670813857       162.7374085274773        5.0                      # Si
263  263  2    29.745615743845356       162.7374085274773        5.0                      # Si
264  264  2    39.660439341627715       162.7374085274773        5.0                      # Si
265  265  2    49.57583541465922        162.7374085274773        5.0                      # Si
266  266  2    59.49065901244157        162.7374085274773        5.0                      # Si
267  267  2    69.40605508547307        162.7374085274773        5.0                      # Si
268  268  2    79.32087868325543        162.7374085274773        5.0                      # Si
269  269  2    89.23627475628693        162.7374085274773        5.0                      # Si
270  270  2    99.1510984114028         162.7374085274773        5.0                      # Si
271  271  2    109.06649442710079       162.7374085274773        5.0                      # Si
272  272  2    118.98131808221666       162.7374085274773        5.0                      # Si
273  273  2    128.89671415524816       162.7374085274773        5.0                      # Si
274  274  2    133.8541259254726        165.6177166359046        5.0                      # Si
275  275  2    143.76894952325492       165.6177166359046        5.0                      # Si
276  276  2    153.68434559628642       165.6177166359046        5.0                      # Si
277  277  2    163.59916925140232       165.6177166359046        5.0                      # Si
278  278  2    173.5145652671003        165.6177166359046        5.0                      # Si
279  279  2    183.42938892221616       165.6177166359046        5.0                      # Si
280  280  2    193.34478499524766       165.6177166359046        5.0                      # Si
281  281  2    203.25960859303          165.6177166359046        5.0                      # Si
282  282  2    213.1750046660615        165.6177166359046        5.0                      # Si
283  283  2    223.08982826384386       165.6177166359046        5.0                      # Si
284  284  2    233.0052243368754        165.6177166359046        5.0                      # Si
285  285  2    242.92004793465773       165.6177166359046        5.0                      # Si
286  286  2    252.83544400768926       165.6177166359046        5.0                      # Si
287  287  2    4.957411827557939        165.6177166359046        5.0                      # Si
288  288  2    14.872807843255917       165.6177166359046        5.0                      # Si
289  289  2    24.78763149837179        165.6177166359046        5.0                      # Si
290  290  2    34.7030275714033         165.6177166359046        5.0                      # Si
291  291  2    44.61785116918565        165.6177166359046        5.0                      # Si
292  292  2    54.53324724221715        165.6177166359046        5.0                      # Si
293  293  2    64.44807083999952        165.6177166359046        5.0                      # Si
294  294  2    74.36346691303102        165.6177166359046        5.0                      # Si
295  295  2    84.27829051081336        165.6177166359046        5.0                      # Si
296  296  2    94.19368658384487        165.6177166359046        5.0                      # Si
297  297  2    104.10851018162722       165.6177166359046        5.0                      # Si
298  298  2    114.02390625465873       165.6177166359046        5.0                      # Si
299  299  2    123.93872985244107       165.6177166359046        5.0                      # Si
300  300  2    133.8541259254726        171.37833291009272       5.0                      # Si
301  301  2    143.76894952325492       171.37833291009272       5.0                      # Si
302  302  2    153.68434559628642       171.37833291009272       5.0                      # Si
303  303  2    163.59916925140232       171.37833291009272       5.0                      # Si
304  304  2    173.5145652671003        171.37833291009272       5.0                      # Si
305  305  2    183.42938892221616       171.37833291009272       5.0                      # Si
306  306  2    193.34478499524766       171.37833291009272       5.0                      # Si
307  307  2    203.25960859303          171.37833291009272       5.0                      # Si
308  308  2    213.1750046660615        171.37833291009272       5.0                      # Si
309  309  2    223.08982826384386       171.37833291009272       5.0                      # Si
310  310  2    233.0052243368754        171.37833291009272       5.0                      # Si
311  311  2    242.92004793465773       171.37833291009272       5.0                      # Si