DATA FILE Produced from netmc results (cf David Morley)
490 atoms
735 bonds
1470 angles
0 dihedrals
0 impropers
1 atom types
1 bond types
1 angle types
0 dihedral types
0 improper types
0.00000 28.03324166 xlo xhi
0.00000 24.11325262 ylo yhi

# Pair Coeffs
#
# 1  Si

# Bond Coeffs
# 
# 1  Si-Si

# Angle Coeffs
# 
# 1  Si-Si-Si

 Masses

1 32.01000 # Si

 Atoms # molecular

1    1    1    18.39678092              13.31252489              0.0                     # Si
2    2    1    20.14890828              13.31252489              0.0                     # Si
3    3    1    21.90093449              13.31252489              0.0                     # Si
4    4    1    23.65306185              13.31252489              0.0                     # Si
5    5    1    25.40508805              13.31252489              0.0                     # Si
6    6    1    27.15721541              13.31252489              0.0                     # Si
7    7    1    0.8760131                13.31252489              0.0                     # Si
8    8    1    2.62814046               13.31252489              0.0                     # Si
9    9    1    4.38016667               13.31252489              0.0                     # Si
10   10   1    6.13229403               13.31252489              0.0                     # Si
11   11   1    7.88432023               13.31252489              0.0                     # Si
12   12   1    9.63644759               13.31252489              0.0                     # Si
13   13   1    11.3884738               13.31252489              0.0                     # Si
14   14   1    17.52076782              13.81488432              0.0                     # Si
15   15   1    19.27289518              13.81488432              0.0                     # Si
16   16   1    21.02492139              13.81488432              0.0                     # Si
17   17   1    22.77704875              13.81488432              0.0                     # Si
18   18   1    24.52907495              13.81488432              0.0                     # Si
19   19   1    26.28120231              13.81488432              0.0                     # Si
20   20   1    28.03322851              13.81488432              0.0                     # Si
21   21   1    1.75212736               13.81488432              0.0                     # Si
22   22   1    3.50415356               13.81488432              0.0                     # Si
23   23   1    5.25628092               13.81488432              0.0                     # Si
24   24   1    7.00830713               13.81488432              0.0                     # Si
25   25   1    8.76043449               13.81488432              0.0                     # Si
26   26   1    10.51246069              13.81488432              0.0                     # Si
27   27   1    12.26458805              13.81488432              0.0                     # Si
28   28   1    17.52076782              14.81960317              0.0                     # Si
29   29   1    19.27289518              14.81960317              0.0                     # Si
30   30   1    21.02492139              14.81960317              0.0                     # Si
31   31   1    22.77704875              14.81960317              0.0                     # Si
32   32   1    24.52907495              14.81960317              0.0                     # Si
33   33   1    26.28120231              14.81960317              0.0                     # Si
34   34   1    28.03322851              14.81960317              0.0                     # Si
35   35   1    1.75212736               14.81960317              0.0                     # Si
36   36   1    3.50415356               14.81960317              0.0                     # Si
37   37   1    5.25628092               14.81960317              0.0                     # Si
38   38   1    7.00830713               14.81960317              0.0                     # Si
39   39   1    8.76043449               14.81960317              0.0                     # Si
40   40   1    10.51246069              14.81960317              0.0                     # Si
41   41   1    12.26458805              14.81960317              0.0                     # Si
42   42   1    18.39678092              15.3219626               0.0                     # Si
43   43   1    20.14890828              15.3219626               0.0                     # Si
44   44   1    21.90093449              15.3219626               0.0                     # Si
45   45   1    23.65306185              15.3219626               0.0                     # Si
46   46   1    25.40508805              15.3219626               0.0                     # Si
47   47   1    27.15721541              15.3219626               0.0                     # Si
48   48   1    0.8760131                15.3219626               0.0                     # Si
49   49   1    2.62814046               15.3219626               0.0                     # Si
50   50   1    4.38016667               15.3219626               0.0                     # Si
51   51   1    6.13229403               15.3219626               0.0                     # Si
52   52   1    7.88432023               15.3219626               0.0                     # Si
53   53   1    9.63644759               15.3219626               0.0                     # Si
54   54   1    11.3884738               15.3219626               0.0                     # Si
55   55   1    16.64475472              16.32668146              0.0                     # Si
56   56   1    18.39678092              16.32668146              0.0                     # Si
57   57   1    20.14890828              16.32668146              0.0                     # Si
58   58   1    21.90093449              16.32668146              0.0                     # Si
59   59   1    23.65306185              16.32668146              0.0                     # Si
60   60   1    25.40508805              16.32668146              0.0                     # Si
61   61   1    27.15721541              16.32668146              0.0                     # Si
62   62   1    0.8760131                16.32668146              0.0                     # Si
63   63   1    2.62814046               16.32668146              0.0                     # Si
64   64   1    4.38016667               16.32668146              0.0                     # Si
65   65   1    6.13229403               16.32668146              0.0                     # Si
66   66   1    7.88432023               16.32668146              0.0                     # Si
67   67   1    9.63644759               16.32668146              0.0                     # Si
68   68   1    11.3884738               16.32668146              0.0                     # Si
69   69   1    13.14060116              16.32668146              0.0                     # Si
70   70   1    14.01661426              16.82904089              0.0                     # Si
71   71   1    15.76874162              16.82904089              0.0                     # Si
72   72   1    17.52076782              16.82904089              0.0                     # Si
73   73   1    19.27289518              16.82904089              0.0                     # Si
74   74   1    21.02492139              16.82904089              0.0                     # Si
75   75   1    22.77704875              16.82904089              0.0                     # Si
76   76   1    24.52907495              16.82904089              0.0                     # Si
77   77   1    26.28120231              16.82904089              0.0                     # Si
78   78   1    28.03322851              16.82904089              0.0                     # Si
79   79   1    1.75212736               16.82904089              0.0                     # Si
80   80   1    3.50415356               16.82904089              0.0                     # Si
81   81   1    5.25628092               16.82904089              0.0                     # Si
82   82   1    7.00830713               16.82904089              0.0                     # Si
83   83   1    8.76043449               16.82904089              0.0                     # Si
84   84   1    10.51246069              16.82904089              0.0                     # Si
85   85   1    12.26458805              16.82904089              0.0                     # Si
86   86   1    15.76874162              17.83375975              0.0                     # Si
87   87   1    17.52076782              17.83375975              0.0                     # Si
88   88   1    19.27289518              17.83375975              0.0                     # Si
89   89   1    21.02492139              17.83375975              0.0                     # Si
90   90   1    22.77704875              17.83375975              0.0                     # Si
91   91   1    24.52907495              17.83375975              0.0                     # Si
92   92   1    26.28120231              17.83375975              0.0                     # Si
93   93   1    28.03322851              17.83375975              0.0                     # Si
94   94   1    1.75212736               17.83375975              0.0                     # Si
95   95   1    3.50415356               17.83375975              0.0                     # Si
96   96   1    5.25628092               17.83375975              0.0                     # Si
97   97   1    7.00830713               17.83375975              0.0                     # Si
98   98   1    8.76043449               17.83375975              0.0                     # Si
99   99   1    10.51246069              17.83375975              0.0                     # Si
100  100  1    12.26458805              17.83375975              0.0                     # Si
101  101  1    14.01661426              17.83375975              0.0                     # Si
102  102  1    14.89262736              18.33611918              0.0                     # Si
103  103  1    16.64475472              18.33611918              0.0                     # Si
104  104  1    18.39678092              18.33611918              0.0                     # Si
105  105  1    20.14890828              18.33611918              0.0                     # Si
106  106  1    21.90093449              18.33611918              0.0                     # Si
107  107  1    23.65306185              18.33611918              0.0                     # Si
108  108  1    25.40508805              18.33611918              0.0                     # Si
109  109  1    27.15721541              18.33611918              0.0                     # Si
110  110  1    0.8760131                18.33611918              0.0                     # Si
111  111  1    2.62814046               18.33611918              0.0                     # Si
112  112  1    4.38016667               18.33611918              0.0                     # Si
113  113  1    6.13229403               18.33611918              0.0                     # Si
114  114  1    7.88432023               18.33611918              0.0                     # Si
115  115  1    9.63644759               18.33611918              0.0                     # Si
116  116  1    11.3884738               18.33611918              0.0                     # Si
117  117  1    13.14060116              18.33611918              0.0                     # Si
118  118  1    14.89262736              19.34083804              0.0                     # Si
119  119  1    16.64475472              19.34083804              0.0                     # Si
120  120  1    18.39678092              19.34083804              0.0                     # Si
121  121  1    20.14890828              19.34083804              0.0                     # Si
122  122  1    21.90093449              19.34083804              0.0                     # Si
123  123  1    23.65306185              19.34083804              0.0                     # Si
124  124  1    25.40508805              19.34083804              0.0                     # Si
125  125  1    27.15721541              19.34083804              0.0                     # Si
126  126  1    0.8760131                19.34083804              0.0                     # Si
127  127  1    2.62814046               19.34083804              0.0                     # Si
128  128  1    4.38016667               19.34083804              0.0                     # Si
129  129  1    6.13229403               19.34083804              0.0                     # Si
130  130  1    7.88432023               19.34083804              0.0                     # Si
131  131  1    9.63644759               19.34083804              0.0                     # Si
132  132  1    11.3884738               19.34083804              0.0                     # Si
133  133  1    13.14060116              19.34083804              0.0                     # Si
134  134  1    14.01661426              19.84319747              0.0                     # Si
135  135  1    15.76874162              19.84319747              0.0                     # Si
136  136  1    17.52076782              19.84319747              0.0                     # Si
137  137  1    19.27289518              19.84319747              0.0                     # Si
138  138  1    21.02492139              19.84319747              0.0                     # Si
139  139  1    22.77704875              19.84319747              0.0                     # Si
140  140  1    24.52907495              19.84319747              0.0                     # Si
141  141  1    26.28120231              19.84319747              0.0                     # Si
142  142  1    28.03322851              19.84319747              0.0                     # Si
143  143  1    1.75212736               19.84319747              0.0                     # Si
144  144  1    3.50415356               19.84319747              0.0                     # Si
145  145  1    5.25628092               19.84319747              0.0                     # Si
146  146  1    7.00830713               19.84319747              0.0                     # Si
147  147  1    8.76043449               19.84319747              0.0                     # Si
148  148  1    10.51246069              19.84319747              0.0                     # Si
149  149  1    12.26458805              19.84319747              0.0                     # Si
150  150  1    15.76874162              20.84791633              0.0                     # Si
151  151  1    17.52076782              20.84791633              0.0                     # Si
152  152  1    19.27289518              20.84791633              0.0                     # Si
153  153  1    21.02492139              20.84791633              0.0                     # Si
154  154  1    22.77704875              20.84791633              0.0                     # Si
155  155  1    24.52907495              20.84791633              0.0                     # Si
156  156  1    26.28120231              20.84791633              0.0                     # Si
157  157  1    28.03322851              20.84791633              0.0                     # Si
158  158  1    1.75212736               20.84791633              0.0                     # Si
159  159  1    3.50415356               20.84791633              0.0                     # Si
160  160  1    5.25628092               20.84791633              0.0                     # Si
161  161  1    7.00830713               20.84791633              0.0                     # Si
162  162  1    8.76043449               20.84791633              0.0                     # Si
163  163  1    10.51246069              20.84791633              0.0                     # Si
164  164  1    12.26458805              20.84791633              0.0                     # Si
165  165  1    14.01661426              20.84791633              0.0                     # Si
166  166  1    14.89262736              21.35027576              0.0                     # Si
167  167  1    16.64475472              21.35027576              0.0                     # Si
168  168  1    18.39678092              21.35027576              0.0                     # Si
169  169  1    20.14890828              21.35027576              0.0                     # Si
170  170  1    21.90093449              21.35027576              0.0                     # Si
171  171  1    23.65306185              21.35027576              0.0                     # Si
172  172  1    25.40508805              21.35027576              0.0                     # Si
173  173  1    27.15721541              21.35027576              0.0                     # Si
174  174  1    0.8760131                21.35027576              0.0                     # Si
175  175  1    2.62814046               21.35027576              0.0                     # Si
176  176  1    4.38016667               21.35027576              0.0                     # Si
177  177  1    6.13229403               21.35027576              0.0                     # Si
178  178  1    7.88432023               21.35027576              0.0                     # Si
179  179  1    9.63644759               21.35027576              0.0                     # Si
180  180  1    11.3884738               21.35027576              0.0                     # Si
181  181  1    13.14060116              21.35027576              0.0                     # Si
182  182  1    14.89262736              22.35499462              0.0                     # Si
183  183  1    16.64475472              22.35499462              0.0                     # Si
184  184  1    18.39678092              22.35499462              0.0                     # Si
185  185  1    20.14890828              22.35499462              0.0                     # Si
186  186  1    21.90093449              22.35499462              0.0                     # Si
187  187  1    23.65306185              22.35499462              0.0                     # Si
188  188  1    25.40508805              22.35499462              0.0                     # Si
189  189  1    27.15721541              22.35499462              0.0                     # Si
190  190  1    0.8760131                22.35499462              0.0                     # Si
191  191  1    2.62814046               22.35499462              0.0                     # Si
192  192  1    4.38016667               22.35499462              0.0                     # Si
193  193  1    6.13229403               22.35499462              0.0                     # Si
194  194  1    7.88432023               22.35499462              0.0                     # Si
195  195  1    9.63644759               22.35499462              0.0                     # Si
196  196  1    11.3884738               22.35499462              0.0                     # Si
197  197  1    13.14060116              22.35499462              0.0                     # Si
198  198  1    14.01661426              22.85735405              0.0                     # Si
199  199  1    15.76874162              22.85735405              0.0                     # Si
200  200  1    17.52076782              22.85735405              0.0                     # Si
201  201  1    19.27289518              22.85735405              0.0                     # Si
202  202  1    21.02492139              22.85735405              0.0                     # Si
203  203  1    22.77704875              22.85735405              0.0                     # Si
204  204  1    24.52907495              22.85735405              0.0                     # Si
205  205  1    26.28120231              22.85735405              0.0                     # Si
206  206  1    28.03322851              22.85735405              0.0                     # Si
207  207  1    1.75212736               22.85735405              0.0                     # Si
208  208  1    3.50415356               22.85735405              0.0                     # Si
209  209  1    5.25628092               22.85735405              0.0                     # Si
210  210  1    7.00830713               22.85735405              0.0                     # Si
211  211  1    8.76043449               22.85735405              0.0                     # Si
212  212  1    10.51246069              22.85735405              0.0                     # Si
213  213  1    12.26458805              22.85735405              0.0                     # Si
214  214  1    15.76874162              23.86207291              0.0                     # Si
215  215  1    17.52076782              23.86207291              0.0                     # Si
216  216  1    19.27289518              23.86207291              0.0                     # Si
217  217  1    21.02492139              23.86207291              0.0                     # Si
218  218  1    22.77704875              23.86207291              0.0                     # Si
219  219  1    24.52907495              23.86207291              0.0                     # Si
220  220  1    26.28120231              23.86207291              0.0                     # Si
221  221  1    28.03322851              23.86207291              0.0                     # Si
222  222  1    1.75212736               23.86207291              0.0                     # Si
223  223  1    3.50415356               23.86207291              0.0                     # Si
224  224  1    5.25628092               23.86207291              0.0                     # Si
225  225  1    7.00830713               23.86207291              0.0                     # Si
226  226  1    8.76043449               23.86207291              0.0                     # Si
227  227  1    10.51246069              23.86207291              0.0                     # Si
228  228  1    12.26458805              23.86207291              0.0                     # Si
229  229  1    14.01661426              23.86207291              0.0                     # Si
230  230  1    14.89262736              0.25117971               0.0                     # Si
231  231  1    16.64475472              0.25117971               0.0                     # Si
232  232  1    18.39678092              0.25117971               0.0                     # Si
233  233  1    20.14890828              0.25117971               0.0                     # Si
234  234  1    21.90093449              0.25117971               0.0                     # Si
235  235  1    23.65306185              0.25117971               0.0                     # Si
236  236  1    25.40508805              0.25117971               0.0                     # Si
237  237  1    27.15721541              0.25117971               0.0                     # Si
238  238  1    0.8760131                0.25117971               0.0                     # Si
239  239  1    2.62814046               0.25117971               0.0                     # Si
240  240  1    4.38016667               0.25117971               0.0                     # Si
241  241  1    6.13229403               0.25117971               0.0                     # Si
242  242  1    7.88432023               0.25117971               0.0                     # Si
243  243  1    9.63644759               0.25117971               0.0                     # Si
244  244  1    11.3884738               0.25117971               0.0                     # Si
245  245  1    13.14060116              0.25117971               0.0                     # Si
246  246  1    14.89262736              1.25589857               0.0                     # Si
247  247  1    16.64475472              1.25589857               0.0                     # Si
248  248  1    18.39678092              1.25589857               0.0                     # Si
249  249  1    20.14890828              1.25589857               0.0                     # Si
250  250  1    21.90093449              1.25589857               0.0                     # Si
251  251  1    23.65306185              1.25589857               0.0                     # Si
252  252  1    25.40508805              1.25589857               0.0                     # Si
253  253  1    27.15721541              1.25589857               0.0                     # Si
254  254  1    0.8760131                1.25589857               0.0                     # Si
255  255  1    2.62814046               1.25589857               0.0                     # Si
256  256  1    4.38016667               1.25589857               0.0                     # Si
257  257  1    6.13229403               1.25589857               0.0                     # Si
258  258  1    7.88432023               1.25589857               0.0                     # Si
259  259  1    9.63644759               1.25589857               0.0                     # Si
260  260  1    11.3884738               1.25589857               0.0                     # Si
261  261  1    13.14060116              1.25589857               0.0                     # Si
262  262  1    14.01661426              1.758258                 0.0                     # Si
263  263  1    15.76874162              1.758258                 0.0                     # Si
264  264  1    17.52076782              1.758258                 0.0                     # Si
265  265  1    19.27289518              1.758258                 0.0                     # Si
266  266  1    21.02492139              1.758258                 0.0                     # Si
267  267  1    22.77704875              1.758258                 0.0                     # Si
268  268  1    24.52907495              1.758258                 0.0                     # Si
269  269  1    26.28120231              1.758258                 0.0                     # Si
270  270  1    28.03322851              1.758258                 0.0                     # Si
271  271  1    1.75212736               1.758258                 0.0                     # Si
272  272  1    3.50415356               1.758258                 0.0                     # Si
273  273  1    5.25628092               1.758258                 0.0                     # Si
274  274  1    7.00830713               1.758258                 0.0                     # Si
275  275  1    8.76043449               1.758258                 0.0                     # Si
276  276  1    10.51246069              1.758258                 0.0                     # Si
277  277  1    12.26458805              1.758258                 0.0                     # Si
278  278  1    15.76874162              2.76297686               0.0                     # Si
279  279  1    17.52076782              2.76297686               0.0                     # Si
280  280  1    19.27289518              2.76297686               0.0                     # Si
281  281  1    21.02492139              2.76297686               0.0                     # Si
282  282  1    22.77704875              2.76297686               0.0                     # Si
283  283  1    24.52907495              2.76297686               0.0                     # Si
284  284  1    26.28120231              2.76297686               0.0                     # Si
285  285  1    28.03322851              2.76297686               0.0                     # Si
286  286  1    1.75212736               2.76297686               0.0                     # Si
287  287  1    3.50415356               2.76297686               0.0                     # Si
288  288  1    5.25628092               2.76297686               0.0                     # Si
289  289  1    7.00830713               2.76297686               0.0                     # Si
290  290  1    8.76043449               2.76297686               0.0                     # Si
291  291  1    10.51246069              2.76297686               0.0                     # Si
292  292  1    12.26458805              2.76297686               0.0                     # Si
293  293  1    14.01661426              2.76297686               0.0                     # Si
294  294  1    14.89262736              3.26533629               0.0                     # Si
295  295  1    16.64475472              3.26533629               0.0                     # Si
296  296  1    18.39678092              3.26533629               0.0                     # Si
297  297  1    20.14890828              3.26533629               0.0                     # Si
298  298  1    21.90093449              3.26533629               0.0                     # Si
299  299  1    23.65306185              3.26533629               0.0                     # Si
300  300  1    25.40508805              3.26533629               0.0                     # Si
301  301  1    27.15721541              3.26533629               0.0                     # Si
302  302  1    0.8760131                3.26533629               0.0                     # Si
303  303  1    2.62814046               3.26533629               0.0                     # Si
304  304  1    4.38016667               3.26533629               0.0                     # Si
305  305  1    6.13229403               3.26533629               0.0                     # Si
306  306  1    7.88432023               3.26533629               0.0                     # Si
307  307  1    9.63644759               3.26533629               0.0                     # Si
308  308  1    11.3884738               3.26533629               0.0                     # Si
309  309  1    13.14060116              3.26533629               0.0                     # Si
310  310  1    14.89262736              4.27005515               0.0                     # Si
311  311  1    16.64475472              4.27005515               0.0                     # Si
312  312  1    18.39678092              4.27005515               0.0                     # Si
313  313  1    20.14890828              4.27005515               0.0                     # Si
314  314  1    21.90093449              4.27005515               0.0                     # Si
315  315  1    23.65306185              4.27005515               0.0                     # Si