DATA FILE Produced from netmc results (cf David Morley)
1225 atoms
2940 bonds
0 angles
0 dihedrals
0 impropers
2 atom types
2 bond types
0 angle types
0 dihedral types
0 improper types
0.00000 160.72445672303425 xlo xhi
0.00000 138.24977768107257 ylo yhi

# Pair Coeffs
#
# 1  O
# 2  Si

# Bond Coeffs
# 
# 1  O-O
# 2  Si-O
# 3  O-O rep
# 4  Si-Si rep

 Masses

1 28.10000 # O 
2 32.01000 # Si

 Atoms # molecular

1    1    2    105.47523025275707       76.32539812939783        5.0                      # Si
2    2    2    115.52079406806806       76.32539812939783        5.0                      # Si
3    3    2    125.5657779547716        76.32539812939783        5.0                      # Si
4    4    2    135.61134177008256       76.32539812939783        5.0                      # Si
5    5    2    145.6563255994526        76.32539812939783        5.0                      # Si
6    6    2    155.70188941476357       76.32539812939783        5.0                      # Si
7    7    2    5.022491914685013        76.32539812939783        5.0                      # Si
8    8    2    15.068055729995988       76.32539812939783        5.0                      # Si
9    9    2    25.11303961669954        76.32539812939783        5.0                      # Si
10   10   2    35.158603432010516       76.32539812939783        5.0                      # Si
11   11   2    45.20358726138054        76.32539812939783        5.0                      # Si
12   12   2    55.24915107669151        76.32539812939783        5.0                      # Si
13   13   2    65.29413496339507        76.32539812939783        5.0                      # Si
14   14   2    100.45273833807205       79.20560183347574        5.0                      # Si
15   15   2    110.49830215338302       79.20560183347574        5.0                      # Si
16   16   2    120.54328604008658       79.20560183347574        5.0                      # Si
17   17   2    130.58884985539754       79.20560183347574        5.0                      # Si
18   18   2    140.63383368476758       79.20560183347574        5.0                      # Si
19   19   2    150.67939750007858       79.20560183347574        5.0                      # Si
20   20   2    160.7243813294486        79.20560183347574        5.0                      # Si
21   21   2    10.045563815310977       79.20560183347574        5.0                      # Si
22   22   2    20.090547644681          79.20560183347574        5.0                      # Si
23   23   2    30.136111459991977       79.20560183347574        5.0                      # Si
24   24   2    40.18109534669553        79.20560183347574        5.0                      # Si
25   25   2    50.226659162006506       79.20560183347574        5.0                      # Si
26   26   2    60.271642991376524       79.20560183347574        5.0                      # Si
27   27   2    70.31720680668751        79.20560183347574        5.0                      # Si
28   28   2    100.45273833807205       84.96600918429802        5.0                      # Si
29   29   2    110.49830215338302       84.96600918429802        5.0                      # Si
30   30   2    120.54328604008658       84.96600918429802        5.0                      # Si
31   31   2    130.58884985539754       84.96600918429802        5.0                      # Si
32   32   2    140.63383368476758       84.96600918429802        5.0                      # Si
33   33   2    150.67939750007858       84.96600918429802        5.0                      # Si
34   34   2    160.7243813294486        84.96600918429802        5.0                      # Si
35   35   2    10.045563815310977       84.96600918429802        5.0                      # Si
36   36   2    20.090547644681          84.96600918429802        5.0                      # Si
37   37   2    30.136111459991977       84.96600918429802        5.0                      # Si
38   38   2    40.18109534669553        84.96600918429802        5.0                      # Si
39   39   2    50.226659162006506       84.96600918429802        5.0                      # Si
40   40   2    60.271642991376524       84.96600918429802        5.0                      # Si
41   41   2    70.31720680668751        84.96600918429802        5.0                      # Si
42   42   2    105.47523025275707       87.84621288837593        5.0                      # Si
43   43   2    115.52079406806806       87.84621288837593        5.0                      # Si
44   44   2    125.5657779547716        87.84621288837593        5.0                      # Si
45   45   2    135.61134177008256       87.84621288837593        5.0                      # Si
46   46   2    145.6563255994526        87.84621288837593        5.0                      # Si
47   47   2    155.70188941476357       87.84621288837593        5.0                      # Si
48   48   2    5.022491914685013        87.84621288837593        5.0                      # Si
49   49   2    15.068055729995988       87.84621288837593        5.0                      # Si
50   50   2    25.11303961669954        87.84621288837593        5.0                      # Si
51   51   2    35.158603432010516       87.84621288837593        5.0                      # Si
52   52   2    45.20358726138054        87.84621288837593        5.0                      # Si
53   53   2    55.24915107669151        87.84621288837593        5.0                      # Si
54   54   2    65.29413496339507        87.84621288837593        5.0                      # Si
55   55   2    95.43024642338706        93.60662029653174        5.0                      # Si
56   56   2    105.47523025275707       93.60662029653174        5.0                      # Si
57   57   2    115.52079406806806       93.60662029653174        5.0                      # Si
58   58   2    125.5657779547716        93.60662029653174        5.0                      # Si
59   59   2    135.61134177008256       93.60662029653174        5.0                      # Si
60   60   2    145.6563255994526        93.60662029653174        5.0                      # Si
61   61   2    155.70188941476357       93.60662029653174        5.0                      # Si
62   62   2    5.022491914685013        93.60662029653174        5.0                      # Si
63   63   2    15.068055729995988       93.60662029653174        5.0                      # Si
64   64   2    25.11303961669954        93.60662029653174        5.0                      # Si
65   65   2    35.158603432010516       93.60662029653174        5.0                      # Si
66   66   2    45.20358726138054        93.60662029653174        5.0                      # Si
67   67   2    55.24915107669151        93.60662029653174        5.0                      # Si
68   68   2    65.29413496339507        93.60662029653174        5.0                      # Si
69   69   2    75.33969877870604        93.60662029653174        5.0                      # Si
70   70   2    80.36219069339106        96.48682400060966        5.0                      # Si
71   71   2    90.40775450870203        96.48682400060966        5.0                      # Si
72   72   2    100.45273833807205       96.48682400060966        5.0                      # Si
73   73   2    110.49830215338302       96.48682400060966        5.0                      # Si
74   74   2    120.54328604008658       96.48682400060966        5.0                      # Si
75   75   2    130.58884985539754       96.48682400060966        5.0                      # Si
76   76   2    140.63383368476758       96.48682400060966        5.0                      # Si
77   77   2    150.67939750007858       96.48682400060966        5.0                      # Si
78   78   2    160.7243813294486        96.48682400060966        5.0                      # Si
79   79   2    10.045563815310977       96.48682400060966        5.0                      # Si
80   80   2    20.090547644681          96.48682400060966        5.0                      # Si
81   81   2    30.136111459991977       96.48682400060966        5.0                      # Si
82   82   2    40.18109534669553        96.48682400060966        5.0                      # Si
83   83   2    50.226659162006506       96.48682400060966        5.0                      # Si
84   84   2    60.271642991376524       96.48682400060966        5.0                      # Si
85   85   2    70.31720680668751        96.48682400060966        5.0                      # Si
86   86   2    90.40775450870203        102.24723140876546       5.0                      # Si
87   87   2    100.45273833807205       102.24723140876546       5.0                      # Si
88   88   2    110.49830215338302       102.24723140876546       5.0                      # Si
89   89   2    120.54328604008658       102.24723140876546       5.0                      # Si
90   90   2    130.58884985539754       102.24723140876546       5.0                      # Si
91   91   2    140.63383368476758       102.24723140876546       5.0                      # Si
92   92   2    150.67939750007858       102.24723140876546       5.0                      # Si
93   93   2    160.7243813294486        102.24723140876546       5.0                      # Si
94   94   2    10.045563815310977       102.24723140876546       5.0                      # Si
95   95   2    20.090547644681          102.24723140876546       5.0                      # Si
96   96   2    30.136111459991977       102.24723140876546       5.0                      # Si
97   97   2    40.18109534669553        102.24723140876546       5.0                      # Si
98   98   2    50.226659162006506       102.24723140876546       5.0                      # Si
99   99   2    60.271642991376524       102.24723140876546       5.0                      # Si
100  100  2    70.31720680668751        102.24723140876546       5.0                      # Si
101  101  2    80.36219069339106        102.24723140876546       5.0                      # Si
102  102  2    85.38468260807608        105.12743511284339       5.0                      # Si
103  103  2    95.43024642338706        105.12743511284339       5.0                      # Si
104  104  2    105.47523025275707       105.12743511284339       5.0                      # Si
105  105  2    115.52079406806806       105.12743511284339       5.0                      # Si
106  106  2    125.5657779547716        105.12743511284339       5.0                      # Si
107  107  2    135.61134177008256       105.12743511284339       5.0                      # Si
108  108  2    145.6563255994526        105.12743511284339       5.0                      # Si
109  109  2    155.70188941476357       105.12743511284339       5.0                      # Si
110  110  2    5.022491914685013        105.12743511284339       5.0                      # Si
111  111  2    15.068055729995988       105.12743511284339       5.0                      # Si
112  112  2    25.11303961669954        105.12743511284339       5.0                      # Si
113  113  2    35.158603432010516       105.12743511284339       5.0                      # Si
114  114  2    45.20358726138054        105.12743511284339       5.0                      # Si
115  115  2    55.24915107669151        105.12743511284339       5.0                      # Si
116  116  2    65.29413496339507        105.12743511284339       5.0                      # Si
117  117  2    75.33969877870604        105.12743511284339       5.0                      # Si
118  118  2    85.38468260807608        110.8878425209992        5.0                      # Si
119  119  2    95.43024642338706        110.8878425209992        5.0                      # Si
120  120  2    105.47523025275707       110.8878425209992        5.0                      # Si
121  121  2    115.52079406806806       110.8878425209992        5.0                      # Si
122  122  2    125.5657779547716        110.8878425209992        5.0                      # Si
123  123  2    135.61134177008256       110.8878425209992        5.0                      # Si
124  124  2    145.6563255994526        110.8878425209992        5.0                      # Si
125  125  2    155.70188941476357       110.8878425209992        5.0                      # Si
126  126  2    5.022491914685013        110.8878425209992        5.0                      # Si
127  127  2    15.068055729995988       110.8878425209992        5.0                      # Si
128  128  2    25.11303961669954        110.8878425209992        5.0                      # Si
129  129  2    35.158603432010516       110.8878425209992        5.0                      # Si
130  130  2    45.20358726138054        110.8878425209992        5.0                      # Si
131  131  2    55.24915107669151        110.8878425209992        5.0                      # Si
132  132  2    65.29413496339507        110.8878425209992        5.0                      # Si
133  133  2    75.33969877870604        110.8878425209992        5.0                      # Si
134  134  2    80.36219069339106        113.7680462250771        5.0                      # Si
135  135  2    90.40775450870203        113.7680462250771        5.0                      # Si
136  136  2    100.45273833807205       113.7680462250771        5.0                      # Si
137  137  2    110.49830215338302       113.7680462250771        5.0                      # Si
138  138  2    120.54328604008658       113.7680462250771        5.0                      # Si
139  139  2    130.58884985539754       113.7680462250771        5.0                      # Si
140  140  2    140.63383368476758       113.7680462250771        5.0                      # Si
141  141  2    150.67939750007858       113.7680462250771        5.0                      # Si
142  142  2    160.7243813294486        113.7680462250771        5.0                      # Si
143  143  2    10.045563815310977       113.7680462250771        5.0                      # Si
144  144  2    20.090547644681          113.7680462250771        5.0                      # Si
145  145  2    30.136111459991977       113.7680462250771        5.0                      # Si
146  146  2    40.18109534669553        113.7680462250771        5.0                      # Si
147  147  2    50.226659162006506       113.7680462250771        5.0                      # Si
148  148  2    60.271642991376524       113.7680462250771        5.0                      # Si
149  149  2    70.31720680668751        113.7680462250771        5.0                      # Si
150  150  2    90.40775450870203        119.52845363323293       5.0                      # Si
151  151  2    100.45273833807205       119.52845363323293       5.0                      # Si
152  152  2    110.49830215338302       119.52845363323293       5.0                      # Si
153  153  2    120.54328604008658       119.52845363323293       5.0                      # Si
154  154  2    130.58884985539754       119.52845363323293       5.0                      # Si
155  155  2    140.63383368476758       119.52845363323293       5.0                      # Si
156  156  2    150.67939750007858       119.52845363323293       5.0                      # Si
157  157  2    160.7243813294486        119.52845363323293       5.0                      # Si
158  158  2    10.045563815310977       119.52845363323293       5.0                      # Si
159  159  2    20.090547644681          119.52845363323293       5.0                      # Si
160  160  2    30.136111459991977       119.52845363323293       5.0                      # Si
161  161  2    40.18109534669553        119.52845363323293       5.0                      # Si
162  162  2    50.226659162006506       119.52845363323293       5.0                      # Si
163  163  2    60.271642991376524       119.52845363323293       5.0                      # Si
164  164  2    70.31720680668751        119.52845363323293       5.0                      # Si
165  165  2    80.36219069339106        119.52845363323293       5.0                      # Si
166  166  2    85.38468260807608        122.40865733731083       5.0                      # Si
167  167  2    95.43024642338706        122.40865733731083       5.0                      # Si
168  168  2    105.47523025275707       122.40865733731083       5.0                      # Si
169  169  2    115.52079406806806       122.40865733731083       5.0                      # Si
170  170  2    125.5657779547716        122.40865733731083       5.0                      # Si
171  171  2    135.61134177008256       122.40865733731083       5.0                      # Si
172  172  2    145.6563255994526        122.40865733731083       5.0                      # Si
173  173  2    155.70188941476357       122.40865733731083       5.0                      # Si
174  174  2    5.022491914685013        122.40865733731083       5.0                      # Si
175  175  2    15.068055729995988       122.40865733731083       5.0                      # Si
176  176  2    25.11303961669954        122.40865733731083       5.0                      # Si
177  177  2    35.158603432010516       122.40865733731083       5.0                      # Si
178  178  2    45.20358726138054        122.40865733731083       5.0                      # Si
179  179  2    55.24915107669151        122.40865733731083       5.0                      # Si
180  180  2    65.29413496339507        122.40865733731083       5.0                      # Si
181  181  2    75.33969877870604        122.40865733731083       5.0                      # Si
182  182  2    85.38468260807608        128.16906474546664       5.0                      # Si
183  183  2    95.43024642338706        128.16906474546664       5.0                      # Si
184  184  2    105.47523025275707       128.16906474546664       5.0                      # Si
185  185  2    115.52079406806806       128.16906474546664       5.0                      # Si
186  186  2    125.5657779547716        128.16906474546664       5.0                      # Si
187  187  2    135.61134177008256       128.16906474546664       5.0                      # Si
188  188  2    145.6563255994526        128.16906474546664       5.0                      # Si
189  189  2    155.70188941476357       128.16906474546664       5.0                      # Si
190  190  2    5.022491914685013        128.16906474546664       5.0                      # Si
191  191  2    15.068055729995988       128.16906474546664       5.0                      # Si
192  192  2    25.11303961669954        128.16906474546664       5.0                      # Si
193  193  2    35.158603432010516       128.16906474546664       5.0                      # Si
194  194  2    45.20358726138054        128.16906474546664       5.0                      # Si
195  195  2    55.24915107669151        128.16906474546664       5.0                      # Si
196  196  2    65.29413496339507        128.16906474546664       5.0                      # Si
197  197  2    75.33969877870604        128.16906474546664       5.0                      # Si
198  198  2    80.36219069339106        131.04926844954457       5.0                      # Si
199  199  2    90.40775450870203        131.04926844954457       5.0                      # Si
200  200  2    100.45273833807205       131.04926844954457       5.0                      # Si
201  201  2    110.49830215338302       131.04926844954457       5.0                      # Si
202  202  2    120.54328604008658       131.04926844954457       5.0                      # Si
203  203  2    130.58884985539754       131.04926844954457       5.0                      # Si
204  204  2    140.63383368476758       131.04926844954457       5.0                      # Si
205  205  2    150.67939750007858       131.04926844954457       5.0                      # Si
206  206  2    160.7243813294486        131.04926844954457       5.0                      # Si
207  207  2    10.045563815310977       131.04926844954457       5.0                      # Si
208  208  2    20.090547644681          131.04926844954457       5.0                      # Si
209  209  2    30.136111459991977       131.04926844954457       5.0                      # Si
210  210  2    40.18109534669553        131.04926844954457       5.0                      # Si
211  211  2    50.226659162006506       131.04926844954457       5.0                      # Si
212  212  2    60.271642991376524       131.04926844954457       5.0                      # Si
213  213  2    70.31720680668751        131.04926844954457       5.0                      # Si
214  214  2    90.40775450870203        136.80967585770037       5.0                      # Si
215  215  2    100.45273833807205       136.80967585770037       5.0                      # Si
216  216  2    110.49830215338302       136.80967585770037       5.0                      # Si
217  217  2    120.54328604008658       136.80967585770037       5.0                      # Si
218  218  2    130.58884985539754       136.80967585770037       5.0                      # Si
219  219  2    140.63383368476758       136.80967585770037       5.0                      # Si
220  220  2    150.67939750007858       136.80967585770037       5.0                      # Si
221  221  2    160.7243813294486        136.80967585770037       5.0                      # Si
222  222  2    10.045563815310977       136.80967585770037       5.0                      # Si
223  223  2    20.090547644681          136.80967585770037       5.0                      # Si
224  224  2    30.136111459991977       136.80967585770037       5.0                      # Si
225  225  2    40.18109534669553        136.80967585770037       5.0                      # Si
226  226  2    50.226659162006506       136.80967585770037       5.0                      # Si
227  227  2    60.271642991376524       136.80967585770037       5.0                      # Si
228  228  2    70.31720680668751        136.80967585770037       5.0                      # Si
229  229  2    80.36219069339106        136.80967585770037       5.0                      # Si
230  230  2    85.38468260807608        1.4401018233721918       5.0                      # Si
231  231  2    95.43024642338706        1.4401018233721918       5.0                      # Si
232  232  2    105.47523025275707       1.4401018233721918       5.0                      # Si
233  233  2    115.52079406806806       1.4401018233721918       5.0                      # Si
234  234  2    125.5657779547716        1.4401018233721918       5.0                      # Si
235  235  2    135.61134177008256       1.4401018233721918       5.0                      # Si
236  236  2    145.6563255994526        1.4401018233721918       5.0                      # Si
237  237  2    155.70188941476357       1.4401018233721918       5.0                      # Si
238  238  2    5.022491914685013        1.4401018233721918       5.0                      # Si
239  239  2    15.068055729995988       1.4401018233721918       5.0                      # Si
240  240  2    25.11303961669954        1.4401018233721918       5.0                      # Si
241  241  2    35.158603432010516       1.4401018233721918       5.0                      # Si
242  242  2    45.20358726138054        1.4401018233721918       5.0                      # Si
243  243  2    55.24915107669151        1.4401018233721918       5.0                      # Si
244  244  2    65.29413496339507        1.4401018233721918       5.0                      # Si
245  245  2    75.33969877870604        1.4401018233721918       5.0                      # Si
246  246  2    85.38468260807608        7.2005092315280095       5.0                      # Si
247  247  2    95.43024642338706        7.2005092315280095       5.0                      # Si
248  248  2    105.47523025275707       7.2005092315280095       5.0                      # Si
249  249  2    115.52079406806806       7.2005092315280095       5.0                      # Si
250  250  2    125.5657779547716        7.2005092315280095       5.0                      # Si
251  251  2    135.61134177008256       7.2005092315280095       5.0                      # Si
252  252  2    145.6563255994526        7.2005092315280095       5.0                      # Si
253  253  2    155.70188941476357       7.2005092315280095       5.0                      # Si
254  254  2    5.022491914685013        7.2005092315280095       5.0                      # Si
255  255  2    15.068055729995988       7.2005092315280095       5.0                      # Si
256  256  2    25.11303961669954        7.2005092315280095       5.0                      # Si
257  257  2    35.158603432010516       7.2005092315280095       5.0                      # Si
258  258  2    45.20358726138054        7.2005092315280095       5.0                      # Si
259  259  2    55.24915107669151        7.2005092315280095       5.0                      # Si
260  260  2    65.29413496339507        7.2005092315280095       5.0                      # Si
261  261  2    75.33969877870604        7.2005092315280095       5.0                      # Si
262  262  2    80.36219069339106        10.080712935605918       5.0                      # Si
263  263  2    90.40775450870203        10.080712935605918       5.0                      # Si
264  264  2    100.45273833807205       10.080712935605918       5.0                      # Si
265  265  2    110.49830215338302       10.080712935605918       5.0                      # Si
266  266  2    120.54328604008658       10.080712935605918       5.0                      # Si
267  267  2    130.58884985539754       10.080712935605918       5.0                      # Si
268  268  2    140.63383368476758       10.080712935605918       5.0                      # Si
269  269  2    150.67939750007858       10.080712935605918       5.0                      # Si
270  270  2    160.7243813294486        10.080712935605918       5.0                      # Si
271  271  2    10.045563815310977       10.080712935605918       5.0                      # Si
272  272  2    20.090547644681          10.080712935605918       5.0                      # Si
273  273  2    30.136111459991977       10.080712935605918       5.0                      # Si
274  274  2    40.18109534669553        10.080712935605918       5.0                      # Si
275  275  2    50.226659162006506       10.080712935605918       5.0                      # Si
276  276  2    60.271642991376524       10.080712935605918       5.0                      # Si
277  277  2    70.31720680668751        10.080712935605918       5.0                      # Si
278  278  2    90.40775450870203        15.841120343761737       5.0                      # Si
279  279  2    100.45273833807205       15.841120343761737       5.0                      # Si
280  280  2    110.49830215338302       15.841120343761737       5.0                      # Si
281  281  2    120.54328604008658       15.841120343761737       5.0                      # Si
282  282  2    130.58884985539754       15.841120343761737       5.0                      # Si
283  283  2    140.63383368476758       15.841120343761737       5.0                      # Si
284  284  2    150.67939750007858       15.841120343761737       5.0                      # Si
285  285  2    160.7243813294486        15.841120343761737       5.0                      # Si
286  286  2    10.045563815310977       15.841120343761737       5.0                      # Si
287  287  2    20.090547644681          15.841120343761737       5.0                      # Si
288  288  2    30.136111459991977       15.841120343761737       5.0                      # Si
289  289  2    40.18109534669553        15.841120343761737       5.0                      # Si
290  290  2    50.226659162006506       15.841120343761737       5.0                      # Si
291  291  2    60.271642991376524       15.841120343761737       5.0                      # Si
292  292  2    70.31720680668751        15.841120343761737       5.0                      # Si
293  293  2    80.36219069339106        15.841120343761737       5.0                      # Si
294  294  2    85.38468260807608        18.721324047839644       5.0                      # Si
295  295  2    95.43024642338706        18.721324047839644       5.0                      # Si
296  296  2    105.47523025275707       18.721324047839644       5.0                      # Si
297  297  2    115.52079406806806       18.721324047839644       5.0                      # Si
298  298  2    125.5657779547716        18.721324047839644       5.0                      # Si
299  299  2    135.61134177008256       18.721324047839644       5.0                      # Si
300  300  2    145.6563255994526        18.721324047839644       5.0                      # Si
301  301  2    155.70188941476357       18.721324047839644       5.0                      # Si
302  302  2    5.022491914685013        18.721324047839644       5.0                      # Si
303  303  2    15.068055729995988       18.721324047839644       5.0                      # Si
304  304  2    25.11303961669954        18.721324047839644       5.0                      # Si
305  305  2    35.158603432010516       18.721324047839644       5.0                      # Si
306  306  2    45.20358726138054        18.721324047839644       5.0                      # Si
307  307  2    55.24915107669151        18.721324047839644       5.0                      # Si
308  308  2    65.29413496339507        18.721324047839644       5.0                      # Si
309  309  2    75.33969877870604        18.721324047839644       5.0                      # Si
310  310  2    85.38468260807608        24.48173145599546        5.0                      # Si
311  311  2    95.43024642338706        24.48173145599546        5.0                      # Si