DATA FILE Produced from netmc results (cf David Morley)
2940 atoms
9800 bonds
0 angles
0 dihedrals
0 impropers
2 atom types
0 bond types
2 bond types
0 angle types
0 dihedral types
0 improper types
0.00000 160.72445672303425 xlo xhi
0.00000 138.24977768107257 ylo yhi
0.0000 200.0000 zlo zhi

# Pair Coeffs
#
# 1  O
# 2  Si

# Bond Coeffs
# 
# 1  O-O
# 2  Si-O
# 3  O-O rep
# 4  Si-Si rep

 Masses

1 28.10000 # O 
2 32.01000 # Si

 Atoms # molecular

1    1    1    105.47523025275707       76.32539812939783        8.040569334518267        # O
2    2    1    115.52079406806806       76.32539812939783        8.040569334518267        # O
3    3    1    125.5657779547716        76.32539812939783        8.040569334518267        # O
4    4    1    135.61134177008256       76.32539812939783        8.040569334518267        # O
5    5    1    145.6563255994526        76.32539812939783        8.040569334518267        # O
6    6    1    155.70188941476357       76.32539812939783        8.040569334518267        # O
7    7    1    5.022491914685013        76.32539812939783        8.040569334518267        # O
8    8    1    15.068055729995988       76.32539812939783        8.040569334518267        # O
9    9    1    25.11303961669954        76.32539812939783        8.040569334518267        # O
10   10   1    35.158603432010516       76.32539812939783        8.040569334518267        # O
11   11   1    45.20358726138054        76.32539812939783        8.040569334518267        # O
12   12   1    55.24915107669151        76.32539812939783        8.040569334518267        # O
13   13   1    65.29413496339507        76.32539812939783        8.040569334518267        # O
14   14   1    100.45273833807205       79.20560183347574        8.040569334518267        # O
15   15   1    110.49830215338302       79.20560183347574        8.040569334518267        # O
16   16   1    120.54328604008658       79.20560183347574        8.040569334518267        # O
17   17   1    130.58884985539754       79.20560183347574        8.040569334518267        # O
18   18   1    140.63383368476758       79.20560183347574        8.040569334518267        # O
19   19   1    150.67939750007858       79.20560183347574        8.040569334518267        # O
20   20   1    160.7243813294486        79.20560183347574        8.040569334518267        # O
21   21   1    10.045563815310977       79.20560183347574        8.040569334518267        # O
22   22   1    20.090547644681          79.20560183347574        8.040569334518267        # O
23   23   1    30.136111459991977       79.20560183347574        8.040569334518267        # O
24   24   1    40.18109534669553        79.20560183347574        8.040569334518267        # O
25   25   1    50.226659162006506       79.20560183347574        8.040569334518267        # O
26   26   1    60.271642991376524       79.20560183347574        8.040569334518267        # O
27   27   1    70.31720680668751        79.20560183347574        8.040569334518267        # O
28   28   1    100.45273833807205       84.96600918429802        8.040569334518267        # O
29   29   1    110.49830215338302       84.96600918429802        8.040569334518267        # O
30   30   1    120.54328604008658       84.96600918429802        8.040569334518267        # O
31   31   1    130.58884985539754       84.96600918429802        8.040569334518267        # O
32   32   1    140.63383368476758       84.96600918429802        8.040569334518267        # O
33   33   1    150.67939750007858       84.96600918429802        8.040569334518267        # O
34   34   1    160.7243813294486        84.96600918429802        8.040569334518267        # O
35   35   1    10.045563815310977       84.96600918429802        8.040569334518267        # O
36   36   1    20.090547644681          84.96600918429802        8.040569334518267        # O
37   37   1    30.136111459991977       84.96600918429802        8.040569334518267        # O
38   38   1    40.18109534669553        84.96600918429802        8.040569334518267        # O
39   39   1    50.226659162006506       84.96600918429802        8.040569334518267        # O
40   40   1    60.271642991376524       84.96600918429802        8.040569334518267        # O
41   41   1    70.31720680668751        84.96600918429802        8.040569334518267        # O
42   42   1    105.47523025275707       87.84621288837593        8.040569334518267        # O
43   43   1    115.52079406806806       87.84621288837593        8.040569334518267        # O
44   44   1    125.5657779547716        87.84621288837593        8.040569334518267        # O
45   45   1    135.61134177008256       87.84621288837593        8.040569334518267        # O
46   46   1    145.6563255994526        87.84621288837593        8.040569334518267        # O
47   47   1    155.70188941476357       87.84621288837593        8.040569334518267        # O
48   48   1    5.022491914685013        87.84621288837593        8.040569334518267        # O
49   49   1    15.068055729995988       87.84621288837593        8.040569334518267        # O
50   50   1    25.11303961669954        87.84621288837593        8.040569334518267        # O
51   51   1    35.158603432010516       87.84621288837593        8.040569334518267        # O
52   52   1    45.20358726138054        87.84621288837593        8.040569334518267        # O
53   53   1    55.24915107669151        87.84621288837593        8.040569334518267        # O
54   54   1    65.29413496339507        87.84621288837593        8.040569334518267        # O
55   55   1    95.43024642338706        93.60662029653174        8.040569334518267        # O
56   56   1    105.47523025275707       93.60662029653174        8.040569334518267        # O
57   57   1    115.52079406806806       93.60662029653174        8.040569334518267        # O
58   58   1    125.5657779547716        93.60662029653174        8.040569334518267        # O
59   59   1    135.61134177008256       93.60662029653174        8.040569334518267        # O
60   60   1    145.6563255994526        93.60662029653174        8.040569334518267        # O
61   61   1    155.70188941476357       93.60662029653174        8.040569334518267        # O
62   62   1    5.022491914685013        93.60662029653174        8.040569334518267        # O
63   63   1    15.068055729995988       93.60662029653174        8.040569334518267        # O
64   64   1    25.11303961669954        93.60662029653174        8.040569334518267        # O
65   65   1    35.158603432010516       93.60662029653174        8.040569334518267        # O
66   66   1    45.20358726138054        93.60662029653174        8.040569334518267        # O
67   67   1    55.24915107669151        93.60662029653174        8.040569334518267        # O
68   68   1    65.29413496339507        93.60662029653174        8.040569334518267        # O
69   69   1    75.33969877870604        93.60662029653174        8.040569334518267        # O
70   70   1    80.36219069339106        96.48682400060966        8.040569334518267        # O
71   71   1    90.40775450870203        96.48682400060966        8.040569334518267        # O
72   72   1    100.45273833807205       96.48682400060966        8.040569334518267        # O
73   73   1    110.49830215338302       96.48682400060966        8.040569334518267        # O
74   74   1    120.54328604008658       96.48682400060966        8.040569334518267        # O
75   75   1    130.58884985539754       96.48682400060966        8.040569334518267        # O
76   76   1    140.63383368476758       96.48682400060966        8.040569334518267        # O
77   77   1    150.67939750007858       96.48682400060966        8.040569334518267        # O
78   78   1    160.7243813294486        96.48682400060966        8.040569334518267        # O
79   79   1    10.045563815310977       96.48682400060966        8.040569334518267        # O
80   80   1    20.090547644681          96.48682400060966        8.040569334518267        # O
81   81   1    30.136111459991977       96.48682400060966        8.040569334518267        # O
82   82   1    40.18109534669553        96.48682400060966        8.040569334518267        # O
83   83   1    50.226659162006506       96.48682400060966        8.040569334518267        # O
84   84   1    60.271642991376524       96.48682400060966        8.040569334518267        # O
85   85   1    70.31720680668751        96.48682400060966        8.040569334518267        # O
86   86   1    90.40775450870203        102.24723140876546       8.040569334518267        # O
87   87   1    100.45273833807205       102.24723140876546       8.040569334518267        # O
88   88   1    110.49830215338302       102.24723140876546       8.040569334518267        # O
89   89   1    120.54328604008658       102.24723140876546       8.040569334518267        # O
90   90   1    130.58884985539754       102.24723140876546       8.040569334518267        # O
91   91   1    140.63383368476758       102.24723140876546       8.040569334518267        # O
92   92   1    150.67939750007858       102.24723140876546       8.040569334518267        # O
93   93   1    160.7243813294486        102.24723140876546       8.040569334518267        # O
94   94   1    10.045563815310977       102.24723140876546       8.040569334518267        # O
95   95   1    20.090547644681          102.24723140876546       8.040569334518267        # O
96   96   1    30.136111459991977       102.24723140876546       8.040569334518267        # O
97   97   1    40.18109534669553        102.24723140876546       8.040569334518267        # O
98   98   1    50.226659162006506       102.24723140876546       8.040569334518267        # O
99   99   1    60.271642991376524       102.24723140876546       8.040569334518267        # O
100  100  1    70.31720680668751        102.24723140876546       8.040569334518267        # O
101  101  1    80.36219069339106        102.24723140876546       8.040569334518267        # O
102  102  1    85.38468260807608        105.12743511284339       8.040569334518267        # O
103  103  1    95.43024642338706        105.12743511284339       8.040569334518267        # O
104  104  1    105.47523025275707       105.12743511284339       8.040569334518267        # O
105  105  1    115.52079406806806       105.12743511284339       8.040569334518267        # O
106  106  1    125.5657779547716        105.12743511284339       8.040569334518267        # O
107  107  1    135.61134177008256       105.12743511284339       8.040569334518267        # O
108  108  1    145.6563255994526        105.12743511284339       8.040569334518267        # O
109  109  1    155.70188941476357       105.12743511284339       8.040569334518267        # O
110  110  1    5.022491914685013        105.12743511284339       8.040569334518267        # O
111  111  1    15.068055729995988       105.12743511284339       8.040569334518267        # O
112  112  1    25.11303961669954        105.12743511284339       8.040569334518267        # O
113  113  1    35.158603432010516       105.12743511284339       8.040569334518267        # O
114  114  1    45.20358726138054        105.12743511284339       8.040569334518267        # O
115  115  1    55.24915107669151        105.12743511284339       8.040569334518267        # O
116  116  1    65.29413496339507        105.12743511284339       8.040569334518267        # O
117  117  1    75.33969877870604        105.12743511284339       8.040569334518267        # O
118  118  1    85.38468260807608        110.8878425209992        8.040569334518267        # O
119  119  1    95.43024642338706        110.8878425209992        8.040569334518267        # O
120  120  1    105.47523025275707       110.8878425209992        8.040569334518267        # O
121  121  1    115.52079406806806       110.8878425209992        8.040569334518267        # O
122  122  1    125.5657779547716        110.8878425209992        8.040569334518267        # O
123  123  1    135.61134177008256       110.8878425209992        8.040569334518267        # O
124  124  1    145.6563255994526        110.8878425209992        8.040569334518267        # O
125  125  1    155.70188941476357       110.8878425209992        8.040569334518267        # O
126  126  1    5.022491914685013        110.8878425209992        8.040569334518267        # O
127  127  1    15.068055729995988       110.8878425209992        8.040569334518267        # O
128  128  1    25.11303961669954        110.8878425209992        8.040569334518267        # O
129  129  1    35.158603432010516       110.8878425209992        8.040569334518267        # O
130  130  1    45.20358726138054        110.8878425209992        8.040569334518267        # O
131  131  1    55.24915107669151        110.8878425209992        8.040569334518267        # O
132  132  1    65.29413496339507        110.8878425209992        8.040569334518267        # O
133  133  1    75.33969877870604        110.8878425209992        8.040569334518267        # O
134  134  1    80.36219069339106        113.7680462250771        8.040569334518267        # O
135  135  1    90.40775450870203        113.7680462250771        8.040569334518267        # O
136  136  1    100.45273833807205       113.7680462250771        8.040569334518267        # O
137  137  1    110.49830215338302       113.7680462250771        8.040569334518267        # O
138  138  1    120.54328604008658       113.7680462250771        8.040569334518267        # O
139  139  1    130.58884985539754       113.7680462250771        8.040569334518267        # O
140  140  1    140.63383368476758       113.7680462250771        8.040569334518267        # O
141  141  1    150.67939750007858       113.7680462250771        8.040569334518267        # O
142  142  1    160.7243813294486        113.7680462250771        8.040569334518267        # O
143  143  1    10.045563815310977       113.7680462250771        8.040569334518267        # O
144  144  1    20.090547644681          113.7680462250771        8.040569334518267        # O
145  145  1    30.136111459991977       113.7680462250771        8.040569334518267        # O
146  146  1    40.18109534669553        113.7680462250771        8.040569334518267        # O
147  147  1    50.226659162006506       113.7680462250771        8.040569334518267        # O
148  148  1    60.271642991376524       113.7680462250771        8.040569334518267        # O
149  149  1    70.31720680668751        113.7680462250771        8.040569334518267        # O
150  150  1    90.40775450870203        119.52845363323293       8.040569334518267        # O
151  151  1    100.45273833807205       119.52845363323293       8.040569334518267        # O
152  152  1    110.49830215338302       119.52845363323293       8.040569334518267        # O
153  153  1    120.54328604008658       119.52845363323293       8.040569334518267        # O
154  154  1    130.58884985539754       119.52845363323293       8.040569334518267        # O
155  155  1    140.63383368476758       119.52845363323293       8.040569334518267        # O
156  156  1    150.67939750007858       119.52845363323293       8.040569334518267        # O
157  157  1    160.7243813294486        119.52845363323293       8.040569334518267        # O
158  158  1    10.045563815310977       119.52845363323293       8.040569334518267        # O
159  159  1    20.090547644681          119.52845363323293       8.040569334518267        # O
160  160  1    30.136111459991977       119.52845363323293       8.040569334518267        # O
161  161  1    40.18109534669553        119.52845363323293       8.040569334518267        # O
162  162  1    50.226659162006506       119.52845363323293       8.040569334518267        # O
163  163  1    60.271642991376524       119.52845363323293       8.040569334518267        # O
164  164  1    70.31720680668751        119.52845363323293       8.040569334518267        # O
165  165  1    80.36219069339106        119.52845363323293       8.040569334518267        # O
166  166  1    85.38468260807608        122.40865733731083       8.040569334518267        # O
167  167  1    95.43024642338706        122.40865733731083       8.040569334518267        # O
168  168  1    105.47523025275707       122.40865733731083       8.040569334518267        # O
169  169  1    115.52079406806806       122.40865733731083       8.040569334518267        # O
170  170  1    125.5657779547716        122.40865733731083       8.040569334518267        # O
171  171  1    135.61134177008256       122.40865733731083       8.040569334518267        # O
172  172  1    145.6563255994526        122.40865733731083       8.040569334518267        # O
173  173  1    155.70188941476357       122.40865733731083       8.040569334518267        # O
174  174  1    5.022491914685013        122.40865733731083       8.040569334518267        # O
175  175  1    15.068055729995988       122.40865733731083       8.040569334518267        # O
176  176  1    25.11303961669954        122.40865733731083       8.040569334518267        # O
177  177  1    35.158603432010516       122.40865733731083       8.040569334518267        # O
178  178  1    45.20358726138054        122.40865733731083       8.040569334518267        # O
179  179  1    55.24915107669151        122.40865733731083       8.040569334518267        # O
180  180  1    65.29413496339507        122.40865733731083       8.040569334518267        # O
181  181  1    75.33969877870604        122.40865733731083       8.040569334518267        # O
182  182  1    85.38468260807608        128.16906474546664       8.040569334518267        # O
183  183  1    95.43024642338706        128.16906474546664       8.040569334518267        # O
184  184  1    105.47523025275707       128.16906474546664       8.040569334518267        # O
185  185  1    115.52079406806806       128.16906474546664       8.040569334518267        # O
186  186  1    125.5657779547716        128.16906474546664       8.040569334518267        # O
187  187  1    135.61134177008256       128.16906474546664       8.040569334518267        # O
188  188  1    145.6563255994526        128.16906474546664       8.040569334518267        # O
189  189  1    155.70188941476357       128.16906474546664       8.040569334518267        # O
190  190  1    5.022491914685013        128.16906474546664       8.040569334518267        # O
191  191  1    15.068055729995988       128.16906474546664       8.040569334518267        # O
192  192  1    25.11303961669954        128.16906474546664       8.040569334518267        # O
193  193  1    35.158603432010516       128.16906474546664       8.040569334518267        # O
194  194  1    45.20358726138054        128.16906474546664       8.040569334518267        # O
195  195  1    55.24915107669151        128.16906474546664       8.040569334518267        # O
196  196  1    65.29413496339507        128.16906474546664       8.040569334518267        # O
197  197  1    75.33969877870604        128.16906474546664       8.040569334518267        # O
198  198  1    80.36219069339106        131.04926844954457       8.040569334518267        # O
199  199  1    90.40775450870203        131.04926844954457       8.040569334518267        # O
200  200  1    100.45273833807205       131.04926844954457       8.040569334518267        # O
201  201  1    110.49830215338302       131.04926844954457       8.040569334518267        # O
202  202  1    120.54328604008658       131.04926844954457       8.040569334518267        # O
203  203  1    130.58884985539754       131.04926844954457       8.040569334518267        # O
204  204  1    140.63383368476758       131.04926844954457       8.040569334518267        # O
205  205  1    150.67939750007858       131.04926844954457       8.040569334518267        # O
206  206  1    160.7243813294486        131.04926844954457       8.040569334518267        # O
207  207  1    10.045563815310977       131.04926844954457       8.040569334518267        # O
208  208  1    20.090547644681          131.04926844954457       8.040569334518267        # O
209  209  1    30.136111459991977       131.04926844954457       8.040569334518267        # O
210  210  1    40.18109534669553        131.04926844954457       8.040569334518267        # O
211  211  1    50.226659162006506       131.04926844954457       8.040569334518267        # O
212  212  1    60.271642991376524       131.04926844954457       8.040569334518267        # O
213  213  1    70.31720680668751        131.04926844954457       8.040569334518267        # O
214  214  1    90.40775450870203        136.80967585770037       8.040569334518267        # O
215  215  1    100.45273833807205       136.80967585770037       8.040569334518267        # O
216  216  1    110.49830215338302       136.80967585770037       8.040569334518267        # O
217  217  1    120.54328604008658       136.80967585770037       8.040569334518267        # O
218  218  1    130.58884985539754       136.80967585770037       8.040569334518267        # O
219  219  1    140.63383368476758       136.80967585770037       8.040569334518267        # O
220  220  1    150.67939750007858       136.80967585770037       8.040569334518267        # O
221  221  1    160.7243813294486        136.80967585770037       8.040569334518267        # O
222  222  1    10.045563815310977       136.80967585770037       8.040569334518267        # O
223  223  1    20.090547644681          136.80967585770037       8.040569334518267        # O
224  224  1    30.136111459991977       136.80967585770037       8.040569334518267        # O
225  225  1    40.18109534669553        136.80967585770037       8.040569334518267        # O
226  226  1    50.226659162006506       136.80967585770037       8.040569334518267        # O
227  227  1    60.271642991376524       136.80967585770037       8.040569334518267        # O
228  228  1    70.31720680668751        136.80967585770037       8.040569334518267        # O
229  229  1    80.36219069339106        136.80967585770037       8.040569334518267        # O
230  230  1    85.38468260807608        1.4401018233721918       8.040569334518267        # O
231  231  1    95.43024642338706        1.4401018233721918       8.040569334518267        # O
232  232  1    105.47523025275707       1.4401018233721918       8.040569334518267        # O
233  233  1    115.52079406806806       1.4401018233721918       8.040569334518267        # O
234  234  1    125.5657779547716        1.4401018233721918       8.040569334518267        # O
235  235  1    135.61134177008256       1.4401018233721918       8.040569334518267        # O
236  236  1    145.6563255994526        1.4401018233721918       8.040569334518267        # O
237  237  1    155.70188941476357       1.4401018233721918       8.040569334518267        # O
238  238  1    5.022491914685013        1.4401018233721918       8.040569334518267        # O
239  239  1    15.068055729995988       1.4401018233721918       8.040569334518267        # O
240  240  1    25.11303961669954        1.4401018233721918       8.040569334518267        # O
241  241  1    35.158603432010516       1.4401018233721918       8.040569334518267        # O
242  242  1    45.20358726138054        1.4401018233721918       8.040569334518267        # O
243  243  1    55.24915107669151        1.4401018233721918       8.040569334518267        # O
244  244  1    65.29413496339507        1.4401018233721918       8.040569334518267        # O
245  245  1    75.33969877870604        1.4401018233721918       8.040569334518267        # O
246  246  1    85.38468260807608        7.2005092315280095       8.040569334518267        # O
247  247  1    95.43024642338706        7.2005092315280095       8.040569334518267        # O
248  248  1    105.47523025275707       7.2005092315280095       8.040569334518267        # O
249  249  1    115.52079406806806       7.2005092315280095       8.040569334518267        # O
250  250  1    125.5657779547716        7.2005092315280095       8.040569334518267        # O
251  251  1    135.61134177008256       7.2005092315280095       8.040569334518267        # O
252  252  1    145.6563255994526        7.2005092315280095       8.040569334518267        # O
253  253  1    155.70188941476357       7.2005092315280095       8.040569334518267        # O
254  254  1    5.022491914685013        7.2005092315280095       8.040569334518267        # O
255  255  1    15.068055729995988       7.2005092315280095       8.040569334518267        # O
256  256  1    25.11303961669954        7.2005092315280095       8.040569334518267        # O
257  257  1    35.158603432010516       7.2005092315280095       8.040569334518267        # O
258  258  1    45.20358726138054        7.2005092315280095       8.040569334518267        # O
259  259  1    55.24915107669151        7.2005092315280095       8.040569334518267        # O
260  260  1    65.29413496339507        7.2005092315280095       8.040569334518267        # O
261  261  1    75.33969877870604        7.2005092315280095       8.040569334518267        # O
262  262  1    80.36219069339106        10.080712935605918       8.040569334518267        # O
263  263  1    90.40775450870203        10.080712935605918       8.040569334518267        # O
264  264  1    100.45273833807205       10.080712935605918       8.040569334518267        # O
265  265  1    110.49830215338302       10.080712935605918       8.040569334518267        # O
266  266  1    120.54328604008658       10.080712935605918       8.040569334518267        # O
267  267  1    130.58884985539754       10.080712935605918       8.040569334518267        # O
268  268  1    140.63383368476758       10.080712935605918       8.040569334518267        # O
269  269  1    150.67939750007858       10.080712935605918       8.040569334518267        # O
270  270  1    160.7243813294486        10.080712935605918       8.040569334518267        # O
271  271  1    10.045563815310977       10.080712935605918       8.040569334518267        # O
272  272  1    20.090547644681          10.080712935605918       8.040569334518267        # O
273  273  1    30.136111459991977       10.080712935605918       8.040569334518267        # O
274  274  1    40.18109534669553        10.080712935605918       8.040569334518267        # O
275  275  1    50.226659162006506       10.080712935605918       8.040569334518267        # O
276  276  1    60.271642991376524       10.080712935605918       8.040569334518267        # O
277  277  1    70.31720680668751        10.080712935605918       8.040569334518267        # O
278  278  1    90.40775450870203        15.841120343761737       8.040569334518267        # O
279  279  1    100.45273833807205       15.841120343761737       8.040569334518267        # O
280  280  1    110.49830215338302       15.841120343761737       8.040569334518267        # O
281  281  1    120.54328604008658       15.841120343761737       8.040569334518267        # O
282  282  1    130.58884985539754       15.841120343761737       8.040569334518267        # O
283  283  1    140.63383368476758       15.841120343761737       8.040569334518267        # O
284  284  1    150.67939750007858       15.841120343761737       8.040569334518267        # O
285  285  1    160.7243813294486        15.841120343761737       8.040569334518267        # O
286  286  1    10.045563815310977       15.841120343761737       8.040569334518267        # O
287  287  1    20.090547644681          15.841120343761737       8.040569334518267        # O
288  288  1    30.136111459991977       15.841120343761737       8.040569334518267        # O
289  289  1    40.18109534669553        15.841120343761737       8.040569334518267        # O
290  290  1    50.226659162006506       15.841120343761737       8.040569334518267        # O
291  291  1    60.271642991376524       15.841120343761737       8.040569334518267        # O
292  292  1    70.31720680668751        15.841120343761737       8.040569334518267        # O
293  293  1    80.36219069339106        15.841120343761737       8.040569334518267        # O
294  294  1    85.38468260807608        18.721324047839644       8.040569334518267        # O
295  295  1    95.43024642338706        18.721324047839644       8.040569334518267        # O
296  296  1    105.47523025275707       18.721324047839644       8.040569334518267        # O
297  297  1    115.52079406806806       18.721324047839644       8.040569334518267        # O
298  298  1    125.5657779547716        18.721324047839644       8.040569334518267        # O
299  299  1    135.61134177008256       18.721324047839644       8.040569334518267        # O
300  300  1    145.6563255994526        18.721324047839644       8.040569334518267        # O
301  301  1    155.70188941476357       18.721324047839644       8.040569334518267        # O
302  302  1    5.022491914685013        18.721324047839644       8.040569334518267        # O
303  303  1    15.068055729995988       18.721324047839644       8.040569334518267        # O
304  304  1    25.11303961669954        18.721324047839644       8.040569334518267        # O
305  305  1    35.158603432010516       18.721324047839644       8.040569334518267        # O
306  306  1    45.20358726138054        18.721324047839644       8.040569334518267        # O
307  307  1    55.24915107669151        18.721324047839644       8.040569334518267        # O
308  308  1    65.29413496339507        18.721324047839644       8.040569334518267        # O
309  309  1    75.33969877870604        18.721324047839644       8.040569334518267        # O
310  310  1    85.38468260807608        24.48173145599546        8.040569334518267        # O
311  311  1    95.43024642338706        24.48173145599546        8.040569334518267        # O
312  312  1    105.47523025275707       24.48173145599546        8.040569334518267        # O
313  313  1    115.52079406806806       24.48173145599546        8.040569334518267        # O
314  314  1    125.5657779547716        24.48173145599546        8.040569334518267        # O