DATA FILE Produced from netmc results (cf David Morley)
452 atoms
1 atom types
0.00000 36.974575153534026 xlo xhi
0.00000 32.02092128593429 ylo yhi

 Masses

1 12.0000 # Si

 Atoms # molecular

1    1    24.264520206943498       17.67821695994289        0.0                     # C
2    1    26.57549678025045        17.67821695994289        0.0                     # C
3    1    28.886339933052046       17.67821695994289        0.0                     # C
4    1    31.197316506358987       17.67821695994289        0.0                     # C
5    1    33.50815965916058        17.67821695994289        0.0                     # C
6    1    35.819136232467535       17.67821695994289        0.0                     # C
7    1    1.1554215764007958       17.67821695994289        0.0                     # C
8    1    3.466398149707745        17.67821695994289        0.0                     # C
9    1    5.777241302509337        17.67821695994289        0.0                     # C
10   1    8.088217875816285        17.67821695994289        0.0                     # C
11   1    23.1090986305427         18.34531948673319        0.0                     # C
12   1    25.420075203849656       18.34531948673319        0.0                     # C
13   1    27.730918356651244       18.34531948673319        0.0                     # C
14   1    30.041894929958193       18.34531948673319        0.0                     # C
15   1    32.352738082759785       18.34531948673319        0.0                     # C
16   1    34.66371465606674        18.34531948673319        0.0                     # C
17   1    36.97455780886833        18.34531948673319        0.0                     # C
18   1    2.310976573306949        18.34531948673319        0.0                     # C
19   1    4.621819726108542        18.34531948673319        0.0                     # C
20   1    6.93279629941549         18.34531948673319        0.0                     # C
21   1    9.243639452217083        18.34531948673319        0.0                     # C
22   1    23.1090986305427         19.679524540313782       0.0                     # C
23   1    25.420075203849656       19.679524540313782       0.0                     # C
24   1    27.730918356651244       19.679524540313782       0.0                     # C
25   1    30.041894929958193       19.679524540313782       0.0                     # C
26   1    32.352738082759785       19.679524540313782       0.0                     # C
27   1    34.66371465606674        19.679524540313782       0.0                     # C
28   1    36.97455780886833        19.679524540313782       0.0                     # C
29   1    2.310976573306949        19.679524540313782       0.0                     # C
30   1    4.621819726108542        19.679524540313782       0.0                     # C
31   1    6.93279629941549         19.679524540313782       0.0                     # C
32   1    9.243639452217083        19.679524540313782       0.0                     # C
33   1    24.264520206943498       20.346627067104084       0.0                     # C
34   1    26.57549678025045        20.346627067104084       0.0                     # C
35   1    28.886339933052046       20.346627067104084       0.0                     # C
36   1    31.197316506358987       20.346627067104084       0.0                     # C
37   1    33.50815965916058        20.346627067104084       0.0                     # C
38   1    35.819136232467535       20.346627067104084       0.0                     # C
39   1    1.1554215764007958       20.346627067104084       0.0                     # C
40   1    3.466398149707745        20.346627067104084       0.0                     # C
41   1    5.777241302509337        20.346627067104084       0.0                     # C
42   1    8.088217875816285        20.346627067104084       0.0                     # C
43   1    21.95367705414191        21.680832120684677       0.0                     # C
44   1    24.264520206943498       21.680832120684677       0.0                     # C
45   1    26.57549678025045        21.680832120684677       0.0                     # C
46   1    28.886339933052046       21.680832120684677       0.0                     # C
47   1    31.197316506358987       21.680832120684677       0.0                     # C
48   1    33.50815965916058        21.680832120684677       0.0                     # C
49   1    35.819136232467535       21.680832120684677       0.0                     # C
50   1    1.1554215764007958       21.680832120684677       0.0                     # C
51   1    3.466398149707745        21.680832120684677       0.0                     # C
52   1    5.777241302509337        21.680832120684677       0.0                     # C
53   1    8.088217875816285        21.680832120684677       0.0                     # C
54   1    10.399061028617878       21.680832120684677       0.0                     # C
55   1    20.798255477741115       22.347934647474975       0.0                     # C
56   1    23.1090986305427         22.347934647474975       0.0                     # C
57   1    25.420075203849656       22.347934647474975       0.0                     # C
58   1    27.730918356651244       22.347934647474975       0.0                     # C
59   1    30.041894929958193       22.347934647474975       0.0                     # C
60   1    32.352738082759785       22.347934647474975       0.0                     # C
61   1    34.66371465606674        22.347934647474975       0.0                     # C
62   1    36.97455780886833        22.347934647474975       0.0                     # C
63   1    2.310976573306949        22.347934647474975       0.0                     # C
64   1    4.621819726108542        22.347934647474975       0.0                     # C
65   1    6.93279629941549         22.347934647474975       0.0                     # C
66   1    9.243639452217083        22.347934647474975       0.0                     # C
67   1    11.55461602552403        22.347934647474975       0.0                     # C
68   1    20.798255477741115       23.68213970105557        0.0                     # C
69   1    23.1090986305427         23.68213970105557        0.0                     # C
70   1    25.420075203849656       23.68213970105557        0.0                     # C
71   1    27.730918356651244       23.68213970105557        0.0                     # C
72   1    30.041894929958193       23.68213970105557        0.0                     # C
73   1    32.352738082759785       23.68213970105557        0.0                     # C
74   1    34.66371465606674        23.68213970105557        0.0                     # C
75   1    36.97455780886833        23.68213970105557        0.0                     # C
76   1    2.310976573306949        23.68213970105557        0.0                     # C
77   1    4.621819726108542        23.68213970105557        0.0                     # C
78   1    6.93279629941549         23.68213970105557        0.0                     # C
79   1    9.243639452217083        23.68213970105557        0.0                     # C
80   1    11.55461602552403        23.68213970105557        0.0                     # C
81   1    13.865459178325622       23.68213970105557        0.0                     # C
82   1    18.487278904434167       23.68213970105557        0.0                     # C
83   1    19.64270048083496        24.34924222784587        0.0                     # C
84   1    21.95367705414191        24.34924222784587        0.0                     # C
85   1    24.264520206943498       24.34924222784587        0.0                     # C
86   1    26.57549678025045        24.34924222784587        0.0                     # C
87   1    28.886339933052046       24.34924222784587        0.0                     # C
88   1    31.197316506358987       24.34924222784587        0.0                     # C
89   1    33.50815965916058        24.34924222784587        0.0                     # C
90   1    35.819136232467535       24.34924222784587        0.0                     # C
91   1    1.1554215764007958       24.34924222784587        0.0                     # C
92   1    3.466398149707745        24.34924222784587        0.0                     # C
93   1    5.777241302509337        24.34924222784587        0.0                     # C
94   1    8.088217875816285        24.34924222784587        0.0                     # C
95   1    10.399061028617878       24.34924222784587        0.0                     # C
96   1    12.710037601924828       24.34924222784587        0.0                     # C
97   1    15.02088075472642        24.34924222784587        0.0                     # C
98   1    17.33185732803337        24.34924222784587        0.0                     # C
99   1    19.64270048083496        25.683447281426464       0.0                     # C
100  1    21.95367705414191        25.683447281426464       0.0                     # C
101  1    24.264520206943498       25.683447281426464       0.0                     # C
102  1    26.57549678025045        25.683447281426464       0.0                     # C
103  1    28.886339933052046       25.683447281426464       0.0                     # C
104  1    31.197316506358987       25.683447281426464       0.0                     # C
105  1    33.50815965916058        25.683447281426464       0.0                     # C
106  1    35.819136232467535       25.683447281426464       0.0                     # C
107  1    1.1554215764007958       25.683447281426464       0.0                     # C
108  1    3.466398149707745        25.683447281426464       0.0                     # C
109  1    5.777241302509337        25.683447281426464       0.0                     # C
110  1    8.088217875816285        25.683447281426464       0.0                     # C
111  1    10.399061028617878       25.683447281426464       0.0                     # C
112  1    12.710037601924828       25.683447281426464       0.0                     # C
113  1    15.02088075472642        25.683447281426464       0.0                     # C
114  1    17.33185732803337        25.683447281426464       0.0                     # C
115  1    18.487278904434167       26.350549808216762       0.0                     # C
116  1    20.798255477741115       26.350549808216762       0.0                     # C
117  1    23.1090986305427         26.350549808216762       0.0                     # C
118  1    25.420075203849656       26.350549808216762       0.0                     # C
119  1    27.730918356651244       26.350549808216762       0.0                     # C
120  1    30.041894929958193       26.350549808216762       0.0                     # C
121  1    32.352738082759785       26.350549808216762       0.0                     # C
122  1    34.66371465606674        26.350549808216762       0.0                     # C
123  1    36.97455780886833        26.350549808216762       0.0                     # C
124  1    2.310976573306949        26.350549808216762       0.0                     # C
125  1    4.621819726108542        26.350549808216762       0.0                     # C
126  1    6.93279629941549         26.350549808216762       0.0                     # C
127  1    9.243639452217083        26.350549808216762       0.0                     # C
128  1    11.55461602552403        26.350549808216762       0.0                     # C
129  1    13.865459178325622       26.350549808216762       0.0                     # C
130  1    16.17643575163257        26.350549808216762       0.0                     # C
131  1    20.798255477741115       27.684754861797355       0.0                     # C
132  1    23.1090986305427         27.684754861797355       0.0                     # C
133  1    25.420075203849656       27.684754861797355       0.0                     # C
134  1    27.730918356651244       27.684754861797355       0.0                     # C
135  1    30.041894929958193       27.684754861797355       0.0                     # C
136  1    32.352738082759785       27.684754861797355       0.0                     # C
137  1    34.66371465606674        27.684754861797355       0.0                     # C
138  1    36.97455780886833        27.684754861797355       0.0                     # C
139  1    2.310976573306949        27.684754861797355       0.0                     # C
140  1    4.621819726108542        27.684754861797355       0.0                     # C
141  1    6.93279629941549         27.684754861797355       0.0                     # C
142  1    9.243639452217083        27.684754861797355       0.0                     # C
143  1    11.55461602552403        27.684754861797355       0.0                     # C
144  1    13.865459178325622       27.684754861797355       0.0                     # C
145  1    16.17643575163257        27.684754861797355       0.0                     # C
146  1    18.487278904434167       27.684754861797355       0.0                     # C
147  1    19.64270048083496        28.351857388587653       0.0                     # C
148  1    21.95367705414191        28.351857388587653       0.0                     # C
149  1    24.264520206943498       28.351857388587653       0.0                     # C
150  1    26.57549678025045        28.351857388587653       0.0                     # C
151  1    28.886339933052046       28.351857388587653       0.0                     # C
152  1    31.197316506358987       28.351857388587653       0.0                     # C
153  1    33.50815965916058        28.351857388587653       0.0                     # C
154  1    35.819136232467535       28.351857388587653       0.0                     # C
155  1    1.1554215764007958       28.351857388587653       0.0                     # C
156  1    3.466398149707745        28.351857388587653       0.0                     # C
157  1    5.777241302509337        28.351857388587653       0.0                     # C
158  1    8.088217875816285        28.351857388587653       0.0                     # C
159  1    10.399061028617878       28.351857388587653       0.0                     # C
160  1    12.710037601924828       28.351857388587653       0.0                     # C
161  1    15.02088075472642        28.351857388587653       0.0                     # C
162  1    17.33185732803337        28.351857388587653       0.0                     # C
163  1    19.64270048083496        29.686062442168254       0.0                     # C
164  1    21.95367705414191        29.686062442168254       0.0                     # C
165  1    24.264520206943498       29.686062442168254       0.0                     # C
166  1    26.57549678025045        29.686062442168254       0.0                     # C
167  1    28.886339933052046       29.686062442168254       0.0                     # C
168  1    31.197316506358987       29.686062442168254       0.0                     # C
169  1    33.50815965916058        29.686062442168254       0.0                     # C
170  1    35.819136232467535       29.686062442168254       0.0                     # C
171  1    1.1554215764007958       29.686062442168254       0.0                     # C
172  1    3.466398149707745        29.686062442168254       0.0                     # C
173  1    5.777241302509337        29.686062442168254       0.0                     # C
174  1    8.088217875816285        29.686062442168254       0.0                     # C
175  1    10.399061028617878       29.686062442168254       0.0                     # C
176  1    12.710037601924828       29.686062442168254       0.0                     # C
177  1    15.02088075472642        29.686062442168254       0.0                     # C
178  1    17.33185732803337        29.686062442168254       0.0                     # C
179  1    18.487278904434167       30.353164968958545       0.0                     # C
180  1    20.798255477741115       30.353164968958545       0.0                     # C
181  1    23.1090986305427         30.353164968958545       0.0                     # C
182  1    25.420075203849656       30.353164968958545       0.0                     # C
183  1    27.730918356651244       30.353164968958545       0.0                     # C
184  1    30.041894929958193       30.353164968958545       0.0                     # C
185  1    32.352738082759785       30.353164968958545       0.0                     # C
186  1    34.66371465606674        30.353164968958545       0.0                     # C
187  1    36.97455780886833        30.353164968958545       0.0                     # C
188  1    2.310976573306949        30.353164968958545       0.0                     # C
189  1    4.621819726108542        30.353164968958545       0.0                     # C
190  1    6.93279629941549         30.353164968958545       0.0                     # C
191  1    9.243639452217083        30.353164968958545       0.0                     # C
192  1    11.55461602552403        30.353164968958545       0.0                     # C
193  1    13.865459178325622       30.353164968958545       0.0                     # C
194  1    16.17643575163257        30.353164968958545       0.0                     # C
195  1    20.798255477741115       31.687370022539145       0.0                     # C
196  1    23.1090986305427         31.687370022539145       0.0                     # C
197  1    25.420075203849656       31.687370022539145       0.0                     # C
198  1    27.730918356651244       31.687370022539145       0.0                     # C
199  1    30.041894929958193       31.687370022539145       0.0                     # C
200  1    32.352738082759785       31.687370022539145       0.0                     # C
201  1    34.66371465606674        31.687370022539145       0.0                     # C
202  1    36.97455780886833        31.687370022539145       0.0                     # C
203  1    2.310976573306949        31.687370022539145       0.0                     # C
204  1    4.621819726108542        31.687370022539145       0.0                     # C
205  1    6.93279629941549         31.687370022539145       0.0                     # C
206  1    9.243639452217083        31.687370022539145       0.0                     # C
207  1    11.55461602552403        31.687370022539145       0.0                     # C
208  1    13.865459178325622       31.687370022539145       0.0                     # C
209  1    16.17643575163257        31.687370022539145       0.0                     # C
210  1    18.487278904434167       31.687370022539145       0.0                     # C
211  1    19.64270048083496        0.3335512633951489       0.0                     # C
212  1    21.95367705414191        0.3335512633951489       0.0                     # C
213  1    24.264520206943498       0.3335512633951489       0.0                     # C
214  1    26.57549678025045        0.3335512633951489       0.0                     # C
215  1    28.886339933052046       0.3335512633951489       0.0                     # C
216  1    31.197316506358987       0.3335512633951489       0.0                     # C
217  1    33.50815965916058        0.3335512633951489       0.0                     # C
218  1    35.819136232467535       0.3335512633951489       0.0                     # C
219  1    1.1554215764007958       0.3335512633951489       0.0                     # C
220  1    3.466398149707745        0.3335512633951489       0.0                     # C
221  1    5.777241302509337        0.3335512633951489       0.0                     # C
222  1    8.088217875816285        0.3335512633951489       0.0                     # C
223  1    10.399061028617878       0.3335512633951489       0.0                     # C
224  1    12.710037601924828       0.3335512633951489       0.0                     # C
225  1    15.02088075472642        0.3335512633951489       0.0                     # C
226  1    17.33185732803337        0.3335512633951489       0.0                     # C
227  1    19.64270048083496        1.6677563169757443       0.0                     # C
228  1    21.95367705414191        1.6677563169757443       0.0                     # C
229  1    24.264520206943498       1.6677563169757443       0.0                     # C
230  1    26.57549678025045        1.6677563169757443       0.0                     # C
231  1    28.886339933052046       1.6677563169757443       0.0                     # C
232  1    31.197316506358987       1.6677563169757443       0.0                     # C
233  1    33.50815965916058        1.6677563169757443       0.0                     # C
234  1    35.819136232467535       1.6677563169757443       0.0                     # C
235  1    1.1554215764007958       1.6677563169757443       0.0                     # C
236  1    3.466398149707745        1.6677563169757443       0.0                     # C
237  1    5.777241302509337        1.6677563169757443       0.0                     # C
238  1    8.088217875816285        1.6677563169757443       0.0                     # C
239  1    10.399061028617878       1.6677563169757443       0.0                     # C
240  1    12.710037601924828       1.6677563169757443       0.0                     # C
241  1    15.02088075472642        1.6677563169757443       0.0                     # C
242  1    17.33185732803337        1.6677563169757443       0.0                     # C
243  1    18.487278904434167       2.334858843766042        0.0                     # C
244  1    20.798255477741115       2.334858843766042        0.0                     # C
245  1    23.1090986305427         2.334858843766042        0.0                     # C
246  1    25.420075203849656       2.334858843766042        0.0                     # C
247  1    27.730918356651244       2.334858843766042        0.0                     # C
248  1    30.041894929958193       2.334858843766042        0.0                     # C
249  1    32.352738082759785       2.334858843766042        0.0                     # C
250  1    34.66371465606674        2.334858843766042        0.0                     # C
251  1    36.97455780886833        2.334858843766042        0.0                     # C
252  1    2.310976573306949        2.334858843766042        0.0                     # C
253  1    4.621819726108542        2.334858843766042        0.0                     # C
254  1    6.93279629941549         2.334858843766042        0.0                     # C
255  1    9.243639452217083        2.334858843766042        0.0                     # C
256  1    11.55461602552403        2.334858843766042        0.0                     # C
257  1    13.865459178325622       2.334858843766042        0.0                     # C
258  1    16.17643575163257        2.334858843766042        0.0                     # C
259  1    20.798255477741115       3.6690638973466374       0.0                     # C
260  1    23.1090986305427         3.6690638973466374       0.0                     # C
261  1    25.420075203849656       3.6690638973466374       0.0                     # C
262  1    27.730918356651244       3.6690638973466374       0.0                     # C
263  1    30.041894929958193       3.6690638973466374       0.0                     # C
264  1    32.352738082759785       3.6690638973466374       0.0                     # C
265  1    34.66371465606674        3.6690638973466374       0.0                     # C
266  1    36.97455780886833        3.6690638973466374       0.0                     # C
267  1    2.310976573306949        3.6690638973466374       0.0                     # C
268  1    4.621819726108542        3.6690638973466374       0.0                     # C
269  1    6.93279629941549         3.6690638973466374       0.0                     # C
270  1    9.243639452217083        3.6690638973466374       0.0                     # C
271  1    11.55461602552403        3.6690638973466374       0.0                     # C
272  1    13.865459178325622       3.6690638973466374       0.0                     # C
273  1    16.17643575163257        3.6690638973466374       0.0                     # C
274  1    18.487278904434167       3.6690638973466374       0.0                     # C
275  1    19.64270048083496        4.336166424136936        0.0                     # C
276  1    21.95367705414191        4.336166424136936        0.0                     # C
277  1    24.264520206943498       4.336166424136936        0.0                     # C
278  1    26.57549678025045        4.336166424136936        0.0                     # C
279  1    28.886339933052046       4.336166424136936        0.0                     # C
280  1    31.197316506358987       4.336166424136936        0.0                     # C
281  1    33.50815965916058        4.336166424136936        0.0                     # C
282  1    35.819136232467535       4.336166424136936        0.0                     # C
283  1    1.1554215764007958       4.336166424136936        0.0                     # C
284  1    3.466398149707745        4.336166424136936        0.0                     # C
285  1    5.777241302509337        4.336166424136936        0.0                     # C
286  1    8.088217875816285        4.336166424136936        0.0                     # C
287  1    10.399061028617878       4.336166424136936        0.0                     # C
288  1    12.710037601924828       4.336166424136936        0.0                     # C
289  1    15.02088075472642        4.336166424136936        0.0                     # C
290  1    17.33185732803337        4.336166424136936        0.0                     # C
291  1    19.64270048083496        5.670371477717531        0.0                     # C
292  1    21.95367705414191        5.670371477717531        0.0                     # C
293  1    24.264520206943498       5.670371477717531        0.0                     # C
294  1    26.57549678025045        5.670371477717531        0.0                     # C
295  1    28.886339933052046       5.670371477717531        0.0                     # C
296  1    31.197316506358987       5.670371477717531        0.0                     # C
297  1    33.50815965916058        5.670371477717531        0.0                     # C
298  1    35.819136232467535       5.670371477717531        0.0                     # C
299  1    1.1554215764007958       5.670371477717531        0.0                     # C
300  1    3.466398149707745        5.670371477717531        0.0                     # C
301  1    5.777241302509337        5.670371477717531        0.0                     # C
302  1    8.088217875816285        5.670371477717531        0.0                     # C
303  1    10.399061028617878       5.670371477717531        0.0                     # C
304  1    12.710037601924828       5.670371477717531        0.0                     # C
305  1    15.02088075472642        5.670371477717531        0.0                     # C
306  1    17.33185732803337        5.670371477717531        0.0                     # C
307  1    18.487278904434167       6.337474004507829        0.0                     # C
308  1    20.798255477741115       6.337474004507829        0.0                     # C
309  1    23.1090986305427         6.337474004507829        0.0                     # C
310  1    25.420075203849656       6.337474004507829        0.0                     # C
311  1    27.730918356651244       6.337474004507829        0.0                     # C
312  1    30.041894929958193       6.337474004507829        0.0                     # C
313  1    32.352738082759785       6.337474004507829        0.0                     # C
314  1    34.66371465606674        6.337474004507829        0.0                     # C
315  1    36.97455780886833        6.337474004507829        0.0                     # C
316  1    2.310976573306949        6.337474004507829        0.0                     # C
317  1    4.621819726108542        6.337474004507829        0.0                     # C
318  1    6.93279629941549         6.337474004507829        0.0                     # C
319  1    9.243639452217083        6.337474004507829        0.0                     # C
320  1    11.55461602552403        6.337474004507829        0.0                     # C
321  1    13.865459178325622       6.337474004507829        0.0                     # C
322  1    16.17643575163257        6.337474004507829        0.0                     # C
323  1    20.798255477741115       7.671679058088425        0.0                     # C
324  1    23.1090986305427         7.671679058088425        0.0                     # C
325  1    25.420075203849656       7.671679058088425        0.0                     # C
326  1    27.730918356651244       7.671679058088425        0.0                     # C
327  1    30.041894929958193       7.671679058088425        0.0                     # C
328  1    32.352738082759785       7.671679058088425        0.0                     # C
329  1    34.66371465606674        7.671679058088425        0.0                     # C
330  1    36.97455780886833        7.671679058088425        0.0                     # C
331  1    2.310976573306949        7.671679058088425        0.0                     # C
332  1    4.621819726108542        7.671679058088425        0.0                     # C
333  1    6.93279629941549         7.671679058088425        0.0                     # C
334  1    9.243639452217083        7.671679058088425        0.0                     # C
335  1    11.55461602552403        7.671679058088425        0.0                     # C
336  1    13.865459178325622       7.671679058088425        0.0                     # C
337  1    16.17643575163257        7.671679058088425        0.0                     # C
338  1    18.487278904434167       7.671679058088425        0.0                     # C