DATA FILE Produced from netmc results (cf David Morley)
452 atoms
678 bonds
1356 angles
0 dihedrals
0 impropers
1 atom types
1 bond types
1 angle types
0 dihedral types
0 improper types
0.00000 26.038433206714103 xlo xhi
0.00000 22.54994456755936 ylo yhi

# Pair Coeffs
#
# 1  Si

# Bond Coeffs
# 
# 1  Si-Si

# Angle Coeffs
# 
# 1  Si-Si-Si

 Masses

1 28.085500 # Si

 Atoms # molecular

1    1    1    17.087690286579928       12.449448563340065       0.0                     # Si
2    2    1    18.715138577641163       12.449448563340065       0.0                     # Si
3    3    1    20.342492910600033       12.449448563340065       0.0                     # Si
4    4    1    21.96994120166126        12.449448563340065       0.0                     # Si
5    5    1    23.59729553462013        12.449448563340065       0.0                     # Si
6    6    1    25.224743825681365       12.449448563340065       0.0                     # Si
7    7    1    0.8136771664794337       12.449448563340065       0.0                     # Si
8    8    1    2.441125457540666        12.449448563340065       0.0                     # Si
9    9    1    4.068479790499533        12.449448563340065       0.0                     # Si
10   10   1    5.695928081560765        12.449448563340065       0.0                     # Si
11   11   1    16.274013120100495       12.919239075164217       0.0                     # Si
12   12   1    17.90146141116173        12.919239075164217       0.0                     # Si
13   13   1    19.528815744120596       12.919239075164217       0.0                     # Si
14   14   1    21.156264035181827       12.919239075164217       0.0                     # Si
15   15   1    22.783618368140697       12.919239075164217       0.0                     # Si
16   16   1    24.41106665920193        12.919239075164217       0.0                     # Si
17   17   1    26.0384209921608         12.919239075164217       0.0                     # Si
18   18   1    1.627448291061232        12.919239075164217       0.0                     # Si
19   19   1    3.2548026240201          12.919239075164217       0.0                     # Si
20   20   1    4.882250915081332        12.919239075164217       0.0                     # Si
21   21   1    6.5096052480402          12.919239075164217       0.0                     # Si
22   22   1    16.274013120100495       13.858820098812524       0.0                     # Si
23   23   1    17.90146141116173        13.858820098812524       0.0                     # Si
24   24   1    19.528815744120596       13.858820098812524       0.0                     # Si
25   25   1    21.156264035181827       13.858820098812524       0.0                     # Si
26   26   1    22.783618368140697       13.858820098812524       0.0                     # Si
27   27   1    24.41106665920193        13.858820098812524       0.0                     # Si
28   28   1    26.0384209921608         13.858820098812524       0.0                     # Si
29   29   1    1.627448291061232        13.858820098812524       0.0                     # Si
30   30   1    3.2548026240201          13.858820098812524       0.0                     # Si
31   31   1    4.882250915081332        13.858820098812524       0.0                     # Si
32   32   1    6.5096052480402          13.858820098812524       0.0                     # Si
33   33   1    17.087690286579928       14.328610610636678       0.0                     # Si
34   34   1    18.715138577641163       14.328610610636678       0.0                     # Si
35   35   1    20.342492910600033       14.328610610636678       0.0                     # Si
36   36   1    21.96994120166126        14.328610610636678       0.0                     # Si
37   37   1    23.59729553462013        14.328610610636678       0.0                     # Si
38   38   1    25.224743825681365       14.328610610636678       0.0                     # Si
39   39   1    0.8136771664794337       14.328610610636678       0.0                     # Si
40   40   1    2.441125457540666        14.328610610636678       0.0                     # Si
41   41   1    4.068479790499533        14.328610610636678       0.0                     # Si
42   42   1    5.695928081560765        14.328610610636678       0.0                     # Si
43   43   1    15.460335953621064       15.268191634284985       0.0                     # Si
44   44   1    17.087690286579928       15.268191634284985       0.0                     # Si
45   45   1    18.715138577641163       15.268191634284985       0.0                     # Si
46   46   1    20.342492910600033       15.268191634284985       0.0                     # Si
47   47   1    21.96994120166126        15.268191634284985       0.0                     # Si
48   48   1    23.59729553462013        15.268191634284985       0.0                     # Si
49   49   1    25.224743825681365       15.268191634284985       0.0                     # Si
50   50   1    0.8136771664794337       15.268191634284985       0.0                     # Si
51   51   1    2.441125457540666        15.268191634284985       0.0                     # Si
52   52   1    4.068479790499533        15.268191634284985       0.0                     # Si
53   53   1    5.695928081560765        15.268191634284985       0.0                     # Si
54   54   1    7.323282414519633        15.268191634284985       0.0                     # Si
55   55   1    14.64665878714163        15.737982146109138       0.0                     # Si
56   56   1    16.274013120100495       15.737982146109138       0.0                     # Si
57   57   1    17.90146141116173        15.737982146109138       0.0                     # Si
58   58   1    19.528815744120596       15.737982146109138       0.0                     # Si
59   59   1    21.156264035181827       15.737982146109138       0.0                     # Si
60   60   1    22.783618368140697       15.737982146109138       0.0                     # Si
61   61   1    24.41106665920193        15.737982146109138       0.0                     # Si
62   62   1    26.0384209921608         15.737982146109138       0.0                     # Si
63   63   1    1.627448291061232        15.737982146109138       0.0                     # Si
64   64   1    3.2548026240201          15.737982146109138       0.0                     # Si
65   65   1    4.882250915081332        15.737982146109138       0.0                     # Si
66   66   1    6.5096052480402          15.737982146109138       0.0                     # Si
67   67   1    8.13705353910143         15.737982146109138       0.0                     # Si
68   68   1    14.64665878714163        16.677563169757445       0.0                     # Si
69   69   1    16.274013120100495       16.677563169757445       0.0                     # Si
70   70   1    17.90146141116173        16.677563169757445       0.0                     # Si
71   71   1    19.528815744120596       16.677563169757445       0.0                     # Si
72   72   1    21.156264035181827       16.677563169757445       0.0                     # Si
73   73   1    22.783618368140697       16.677563169757445       0.0                     # Si
74   74   1    24.41106665920193        16.677563169757445       0.0                     # Si
75   75   1    26.0384209921608         16.677563169757445       0.0                     # Si
76   76   1    1.627448291061232        16.677563169757445       0.0                     # Si
77   77   1    3.2548026240201          16.677563169757445       0.0                     # Si
78   78   1    4.882250915081332        16.677563169757445       0.0                     # Si
79   79   1    6.5096052480402          16.677563169757445       0.0                     # Si
80   80   1    8.13705353910143         16.677563169757445       0.0                     # Si
81   81   1    9.764407872060298        16.677563169757445       0.0                     # Si
82   82   1    13.0192104960804         16.677563169757445       0.0                     # Si
83   83   1    13.832887662559832       17.1473536815816         0.0                     # Si
84   84   1    15.460335953621064       17.1473536815816         0.0                     # Si
85   85   1    17.087690286579928       17.1473536815816         0.0                     # Si
86   86   1    18.715138577641163       17.1473536815816         0.0                     # Si
87   87   1    20.342492910600033       17.1473536815816         0.0                     # Si
88   88   1    21.96994120166126        17.1473536815816         0.0                     # Si
89   89   1    23.59729553462013        17.1473536815816         0.0                     # Si
90   90   1    25.224743825681365       17.1473536815816         0.0                     # Si
91   91   1    0.8136771664794337       17.1473536815816         0.0                     # Si
92   92   1    2.441125457540666        17.1473536815816         0.0                     # Si
93   93   1    4.068479790499533        17.1473536815816         0.0                     # Si
94   94   1    5.695928081560765        17.1473536815816         0.0                     # Si
95   95   1    7.323282414519633        17.1473536815816         0.0                     # Si
96   96   1    8.950730705580865        17.1473536815816         0.0                     # Si
97   97   1    10.578085038539733       17.1473536815816         0.0                     # Si
98   98   1    12.205533329600964       17.1473536815816         0.0                     # Si
99   99   1    13.832887662559832       18.086934705229904       0.0                     # Si
100  100  1    15.460335953621064       18.086934705229904       0.0                     # Si
101  101  1    17.087690286579928       18.086934705229904       0.0                     # Si
102  102  1    18.715138577641163       18.086934705229904       0.0                     # Si
103  103  1    20.342492910600033       18.086934705229904       0.0                     # Si
104  104  1    21.96994120166126        18.086934705229904       0.0                     # Si
105  105  1    23.59729553462013        18.086934705229904       0.0                     # Si
106  106  1    25.224743825681365       18.086934705229904       0.0                     # Si
107  107  1    0.8136771664794337       18.086934705229904       0.0                     # Si
108  108  1    2.441125457540666        18.086934705229904       0.0                     # Si
109  109  1    4.068479790499533        18.086934705229904       0.0                     # Si
110  110  1    5.695928081560765        18.086934705229904       0.0                     # Si
111  111  1    7.323282414519633        18.086934705229904       0.0                     # Si
112  112  1    8.950730705580865        18.086934705229904       0.0                     # Si
113  113  1    10.578085038539733       18.086934705229904       0.0                     # Si
114  114  1    12.205533329600964       18.086934705229904       0.0                     # Si
115  115  1    13.0192104960804         18.55672521705406        0.0                     # Si
116  116  1    14.64665878714163        18.55672521705406        0.0                     # Si
117  117  1    16.274013120100495       18.55672521705406        0.0                     # Si
118  118  1    17.90146141116173        18.55672521705406        0.0                     # Si
119  119  1    19.528815744120596       18.55672521705406        0.0                     # Si
120  120  1    21.156264035181827       18.55672521705406        0.0                     # Si
121  121  1    22.783618368140697       18.55672521705406        0.0                     # Si
122  122  1    24.41106665920193        18.55672521705406        0.0                     # Si
123  123  1    26.0384209921608         18.55672521705406        0.0                     # Si
124  124  1    1.627448291061232        18.55672521705406        0.0                     # Si
125  125  1    3.2548026240201          18.55672521705406        0.0                     # Si
126  126  1    4.882250915081332        18.55672521705406        0.0                     # Si
127  127  1    6.5096052480402          18.55672521705406        0.0                     # Si
128  128  1    8.13705353910143         18.55672521705406        0.0                     # Si
129  129  1    9.764407872060298        18.55672521705406        0.0                     # Si
130  130  1    11.39185616312153        18.55672521705406        0.0                     # Si
131  131  1    14.64665878714163        19.496306240702364       0.0                     # Si
132  132  1    16.274013120100495       19.496306240702364       0.0                     # Si
133  133  1    17.90146141116173        19.496306240702364       0.0                     # Si
134  134  1    19.528815744120596       19.496306240702364       0.0                     # Si
135  135  1    21.156264035181827       19.496306240702364       0.0                     # Si
136  136  1    22.783618368140697       19.496306240702364       0.0                     # Si
137  137  1    24.41106665920193        19.496306240702364       0.0                     # Si
138  138  1    26.0384209921608         19.496306240702364       0.0                     # Si
139  139  1    1.627448291061232        19.496306240702364       0.0                     # Si
140  140  1    3.2548026240201          19.496306240702364       0.0                     # Si
141  141  1    4.882250915081332        19.496306240702364       0.0                     # Si
142  142  1    6.5096052480402          19.496306240702364       0.0                     # Si
143  143  1    8.13705353910143         19.496306240702364       0.0                     # Si
144  144  1    9.764407872060298        19.496306240702364       0.0                     # Si
145  145  1    11.39185616312153        19.496306240702364       0.0                     # Si
146  146  1    13.0192104960804         19.496306240702364       0.0                     # Si
147  147  1    13.832887662559832       19.966096752526518       0.0                     # Si
148  148  1    15.460335953621064       19.966096752526518       0.0                     # Si
149  149  1    17.087690286579928       19.966096752526518       0.0                     # Si
150  150  1    18.715138577641163       19.966096752526518       0.0                     # Si
151  151  1    20.342492910600033       19.966096752526518       0.0                     # Si
152  152  1    21.96994120166126        19.966096752526518       0.0                     # Si
153  153  1    23.59729553462013        19.966096752526518       0.0                     # Si
154  154  1    25.224743825681365       19.966096752526518       0.0                     # Si
155  155  1    0.8136771664794337       19.966096752526518       0.0                     # Si
156  156  1    2.441125457540666        19.966096752526518       0.0                     # Si
157  157  1    4.068479790499533        19.966096752526518       0.0                     # Si
158  158  1    5.695928081560765        19.966096752526518       0.0                     # Si
159  159  1    7.323282414519633        19.966096752526518       0.0                     # Si
160  160  1    8.950730705580865        19.966096752526518       0.0                     # Si
161  161  1    10.578085038539733       19.966096752526518       0.0                     # Si
162  162  1    12.205533329600964       19.966096752526518       0.0                     # Si
163  163  1    13.832887662559832       20.905677776174826       0.0                     # Si
164  164  1    15.460335953621064       20.905677776174826       0.0                     # Si
165  165  1    17.087690286579928       20.905677776174826       0.0                     # Si
166  166  1    18.715138577641163       20.905677776174826       0.0                     # Si
167  167  1    20.342492910600033       20.905677776174826       0.0                     # Si
168  168  1    21.96994120166126        20.905677776174826       0.0                     # Si
169  169  1    23.59729553462013        20.905677776174826       0.0                     # Si
170  170  1    25.224743825681365       20.905677776174826       0.0                     # Si
171  171  1    0.8136771664794337       20.905677776174826       0.0                     # Si
172  172  1    2.441125457540666        20.905677776174826       0.0                     # Si
173  173  1    4.068479790499533        20.905677776174826       0.0                     # Si
174  174  1    5.695928081560765        20.905677776174826       0.0                     # Si
175  175  1    7.323282414519633        20.905677776174826       0.0                     # Si
176  176  1    8.950730705580865        20.905677776174826       0.0                     # Si
177  177  1    10.578085038539733       20.905677776174826       0.0                     # Si
178  178  1    12.205533329600964       20.905677776174826       0.0                     # Si
179  179  1    13.0192104960804         21.375468287998977       0.0                     # Si
180  180  1    14.64665878714163        21.375468287998977       0.0                     # Si
181  181  1    16.274013120100495       21.375468287998977       0.0                     # Si
182  182  1    17.90146141116173        21.375468287998977       0.0                     # Si
183  183  1    19.528815744120596       21.375468287998977       0.0                     # Si
184  184  1    21.156264035181827       21.375468287998977       0.0                     # Si
185  185  1    22.783618368140697       21.375468287998977       0.0                     # Si
186  186  1    24.41106665920193        21.375468287998977       0.0                     # Si
187  187  1    26.0384209921608         21.375468287998977       0.0                     # Si
188  188  1    1.627448291061232        21.375468287998977       0.0                     # Si
189  189  1    3.2548026240201          21.375468287998977       0.0                     # Si
190  190  1    4.882250915081332        21.375468287998977       0.0                     # Si
191  191  1    6.5096052480402          21.375468287998977       0.0                     # Si
192  192  1    8.13705353910143         21.375468287998977       0.0                     # Si
193  193  1    9.764407872060298        21.375468287998977       0.0                     # Si
194  194  1    11.39185616312153        21.375468287998977       0.0                     # Si
195  195  1    14.64665878714163        22.315049311647286       0.0                     # Si
196  196  1    16.274013120100495       22.315049311647286       0.0                     # Si
197  197  1    17.90146141116173        22.315049311647286       0.0                     # Si
198  198  1    19.528815744120596       22.315049311647286       0.0                     # Si
199  199  1    21.156264035181827       22.315049311647286       0.0                     # Si
200  200  1    22.783618368140697       22.315049311647286       0.0                     # Si
201  201  1    24.41106665920193        22.315049311647286       0.0                     # Si
202  202  1    26.0384209921608         22.315049311647286       0.0                     # Si
203  203  1    1.627448291061232        22.315049311647286       0.0                     # Si
204  204  1    3.2548026240201          22.315049311647286       0.0                     # Si
205  205  1    4.882250915081332        22.315049311647286       0.0                     # Si
206  206  1    6.5096052480402          22.315049311647286       0.0                     # Si
207  207  1    8.13705353910143         22.315049311647286       0.0                     # Si
208  208  1    9.764407872060298        22.315049311647286       0.0                     # Si
209  209  1    11.39185616312153        22.315049311647286       0.0                     # Si
210  210  1    13.0192104960804         22.315049311647286       0.0                     # Si
211  211  1    13.832887662559832       0.2348952559120767       0.0                     # Si
212  212  1    15.460335953621064       0.2348952559120767       0.0                     # Si
213  213  1    17.087690286579928       0.2348952559120767       0.0                     # Si
214  214  1    18.715138577641163       0.2348952559120767       0.0                     # Si
215  215  1    20.342492910600033       0.2348952559120767       0.0                     # Si
216  216  1    21.96994120166126        0.2348952559120767       0.0                     # Si
217  217  1    23.59729553462013        0.2348952559120767       0.0                     # Si
218  218  1    25.224743825681365       0.2348952559120767       0.0                     # Si
219  219  1    0.8136771664794337       0.2348952559120767       0.0                     # Si
220  220  1    2.441125457540666        0.2348952559120767       0.0                     # Si
221  221  1    4.068479790499533        0.2348952559120767       0.0                     # Si
222  222  1    5.695928081560765        0.2348952559120767       0.0                     # Si
223  223  1    7.323282414519633        0.2348952559120767       0.0                     # Si
224  224  1    8.950730705580865        0.2348952559120767       0.0                     # Si
225  225  1    10.578085038539733       0.2348952559120767       0.0                     # Si
226  226  1    12.205533329600964       0.2348952559120767       0.0                     # Si
227  227  1    13.832887662559832       1.1744762795603834       0.0                     # Si
228  228  1    15.460335953621064       1.1744762795603834       0.0                     # Si
229  229  1    17.087690286579928       1.1744762795603834       0.0                     # Si
230  230  1    18.715138577641163       1.1744762795603834       0.0                     # Si
231  231  1    20.342492910600033       1.1744762795603834       0.0                     # Si
232  232  1    21.96994120166126        1.1744762795603834       0.0                     # Si
233  233  1    23.59729553462013        1.1744762795603834       0.0                     # Si
234  234  1    25.224743825681365       1.1744762795603834       0.0                     # Si
235  235  1    0.8136771664794337       1.1744762795603834       0.0                     # Si
236  236  1    2.441125457540666        1.1744762795603834       0.0                     # Si
237  237  1    4.068479790499533        1.1744762795603834       0.0                     # Si
238  238  1    5.695928081560765        1.1744762795603834       0.0                     # Si
239  239  1    7.323282414519633        1.1744762795603834       0.0                     # Si
240  240  1    8.950730705580865        1.1744762795603834       0.0                     # Si
241  241  1    10.578085038539733       1.1744762795603834       0.0                     # Si
242  242  1    12.205533329600964       1.1744762795603834       0.0                     # Si
243  243  1    13.0192104960804         1.6442667913845368       0.0                     # Si
244  244  1    14.64665878714163        1.6442667913845368       0.0                     # Si
245  245  1    16.274013120100495       1.6442667913845368       0.0                     # Si
246  246  1    17.90146141116173        1.6442667913845368       0.0                     # Si
247  247  1    19.528815744120596       1.6442667913845368       0.0                     # Si
248  248  1    21.156264035181827       1.6442667913845368       0.0                     # Si
249  249  1    22.783618368140697       1.6442667913845368       0.0                     # Si
250  250  1    24.41106665920193        1.6442667913845368       0.0                     # Si
251  251  1    26.0384209921608         1.6442667913845368       0.0                     # Si
252  252  1    1.627448291061232        1.6442667913845368       0.0                     # Si
253  253  1    3.2548026240201          1.6442667913845368       0.0                     # Si
254  254  1    4.882250915081332        1.6442667913845368       0.0                     # Si
255  255  1    6.5096052480402          1.6442667913845368       0.0                     # Si
256  256  1    8.13705353910143         1.6442667913845368       0.0                     # Si
257  257  1    9.764407872060298        1.6442667913845368       0.0                     # Si
258  258  1    11.39185616312153        1.6442667913845368       0.0                     # Si
259  259  1    14.64665878714163        2.5838478150328434       0.0                     # Si
260  260  1    16.274013120100495       2.5838478150328434       0.0                     # Si
261  261  1    17.90146141116173        2.5838478150328434       0.0                     # Si
262  262  1    19.528815744120596       2.5838478150328434       0.0                     # Si
263  263  1    21.156264035181827       2.5838478150328434       0.0                     # Si
264  264  1    22.783618368140697       2.5838478150328434       0.0                     # Si
265  265  1    24.41106665920193        2.5838478150328434       0.0                     # Si
266  266  1    26.0384209921608         2.5838478150328434       0.0                     # Si
267  267  1    1.627448291061232        2.5838478150328434       0.0                     # Si
268  268  1    3.2548026240201          2.5838478150328434       0.0                     # Si
269  269  1    4.882250915081332        2.5838478150328434       0.0                     # Si
270  270  1    6.5096052480402          2.5838478150328434       0.0                     # Si
271  271  1    8.13705353910143         2.5838478150328434       0.0                     # Si
272  272  1    9.764407872060298        2.5838478150328434       0.0                     # Si
273  273  1    11.39185616312153        2.5838478150328434       0.0                     # Si
274  274  1    13.0192104960804         2.5838478150328434       0.0                     # Si
275  275  1    13.832887662559832       3.053638326856997        0.0                     # Si
276  276  1    15.460335953621064       3.053638326856997        0.0                     # Si
277  277  1    17.087690286579928       3.053638326856997        0.0                     # Si
278  278  1    18.715138577641163       3.053638326856997        0.0                     # Si
279  279  1    20.342492910600033       3.053638326856997        0.0                     # Si
280  280  1    21.96994120166126        3.053638326856997        0.0                     # Si
281  281  1    23.59729553462013        3.053638326856997        0.0                     # Si
282  282  1    25.224743825681365       3.053638326856997        0.0                     # Si
283  283  1    0.8136771664794337       3.053638326856997        0.0                     # Si
284  284  1    2.441125457540666        3.053638326856997        0.0                     # Si
285  285  1    4.068479790499533        3.053638326856997        0.0                     # Si
286  286  1    5.695928081560765        3.053638326856997        0.0                     # Si
287  287  1    7.323282414519633        3.053638326856997        0.0                     # Si
288  288  1    8.950730705580865        3.053638326856997        0.0                     # Si
289  289  1    10.578085038539733       3.053638326856997        0.0                     # Si
290  290  1    12.205533329600964       3.053638326856997        0.0                     # Si
291  291  1    13.832887662559832       3.9932193505053037       0.0                     # Si
292  292  1    15.460335953621064       3.9932193505053037       0.0                     # Si
293  293  1    17.087690286579928       3.9932193505053037       0.0                     # Si
294  294  1    18.715138577641163       3.9932193505053037       0.0                     # Si
295  295  1    20.342492910600033       3.9932193505053037       0.0                     # Si
296  296  1    21.96994120166126        3.9932193505053037       0.0                     # Si
297  297  1    23.59729553462013        3.9932193505053037       0.0                     # Si
298  298  1    25.224743825681365       3.9932193505053037       0.0                     # Si
299  299  1    0.8136771664794337       3.9932193505053037       0.0                     # Si
300  300  1    2.441125457540666        3.9932193505053037       0.0                     # Si
301  301  1    4.068479790499533        3.9932193505053037       0.0                     # Si
302  302  1    5.695928081560765        3.9932193505053037       0.0                     # Si
303  303  1    7.323282414519633        3.9932193505053037       0.0                     # Si
304  304  1    8.950730705580865        3.9932193505053037       0.0                     # Si
305  305  1    10.578085038539733       3.9932193505053037       0.0                     # Si
306  306  1    12.205533329600964       3.9932193505053037       0.0                     # Si
307  307  1    13.0192104960804         4.463009862329457        0.0                     # Si
308  308  1    14.64665878714163        4.463009862329457        0.0                     # Si
309  309  1    16.274013120100495       4.463009862329457        0.0                     # Si
310  310  1    17.90146141116173        4.463009862329457        0.0                     # Si
311  311  1    19.528815744120596       4.463009862329457        0.0                     # Si
312  312  1    21.156264035181827       4.463009862329457        0.0                     # Si
313  313  1    22.783618368140697       4.463009862329457        0.0                     # Si
314  314  1    24.41106665920193        4.463009862329457        0.0                     # Si
315  315  1    26.0384209921608         4.463009862329457        0.0                     # Si