DATA FILE Produced from netmc results (cf David Morley)
1130 atoms
2712 bonds
0 angles
0 dihedrals
0 impropers
2 atom types
2 bond types
0 angle types
0 dihedral types
0 improper types
0.00000 149.2875166499078 xlo xhi
0.00000 129.28678151863494 ylo yhi

# Pair Coeffs
#
# 1  O
# 2  Si

# Bond Coeffs
# 
# 1  O-O
# 2  Si-O
# 3  O-O rep
# 4  Si-Si rep

 Masses

1 28.10000 # O 
2 32.01000 # Si

 Atoms # molecular

1    1    2    97.9697521703606         71.37707729674638        5.0                      # Si
2    2    2    107.3004869315451        71.37707729674638        5.0                      # Si
3    3    2    116.6306829978066        71.37707729674638        5.0                      # Si
4    4    2    125.96141775899106       71.37707729674638        5.0                      # Si
5    5    2    135.29161382525257       71.37707729674638        5.0                      # Si
6    6    2    144.62234858643706       71.37707729674638        5.0                      # Si
7    7    2    4.665098033130745        71.37707729674638        5.0                      # Si
8    8    2    13.995832794315229       71.37707729674638        5.0                      # Si
9    9    2    23.32602886057672        71.37707729674638        5.0                      # Si
10   10   2    32.6567636217612         71.37707729674638        5.0                      # Si
11   11   2    93.30465413722985        74.07055191171794        5.0                      # Si
12   12   2    102.63538889841435       74.07055191171794        5.0                      # Si
13   13   2    111.96558496467584       74.07055191171794        5.0                      # Si
14   14   2    121.29631972586031       74.07055191171794        5.0                      # Si
15   15   2    130.6265157921218        74.07055191171794        5.0                      # Si
16   16   2    139.9572505533063        74.07055191171794        5.0                      # Si
17   17   2    149.2874466195678        74.07055191171794        5.0                      # Si
18   18   2    9.330734761184482        74.07055191171794        5.0                      # Si
19   19   2    18.660930827445974       74.07055191171794        5.0                      # Si
20   20   2    27.991665588630458       74.07055191171794        5.0                      # Si
21   21   2    37.32186165489195        74.07055191171794        5.0                      # Si
22   22   2    93.30465413722985        79.45750114166107        5.0                      # Si
23   23   2    102.63538889841435       79.45750114166107        5.0                      # Si
24   24   2    111.96558496467584       79.45750114166107        5.0                      # Si
25   25   2    121.29631972586031       79.45750114166107        5.0                      # Si
26   26   2    130.6265157921218        79.45750114166107        5.0                      # Si
27   27   2    139.9572505533063        79.45750114166107        5.0                      # Si
28   28   2    149.2874466195678        79.45750114166107        5.0                      # Si
29   29   2    9.330734761184482        79.45750114166107        5.0                      # Si
30   30   2    18.660930827445974       79.45750114166107        5.0                      # Si
31   31   2    27.991665588630458       79.45750114166107        5.0                      # Si
32   32   2    37.32186165489195        79.45750114166107        5.0                      # Si
33   33   2    97.9697521703606         82.15097575663263        5.0                      # Si
34   34   2    107.3004869315451        82.15097575663263        5.0                      # Si
35   35   2    116.6306829978066        82.15097575663263        5.0                      # Si
36   36   2    125.96141775899106       82.15097575663263        5.0                      # Si
37   37   2    135.29161382525257       82.15097575663263        5.0                      # Si
38   38   2    144.62234858643706       82.15097575663263        5.0                      # Si
39   39   2    4.665098033130745        82.15097575663263        5.0                      # Si
40   40   2    13.995832794315229       82.15097575663263        5.0                      # Si
41   41   2    23.32602886057672        82.15097575663263        5.0                      # Si
42   42   2    32.6567636217612         82.15097575663263        5.0                      # Si
43   43   2    88.63955610409911        87.53792498657576        5.0                      # Si
44   44   2    97.9697521703606         87.53792498657576        5.0                      # Si
45   45   2    107.3004869315451        87.53792498657576        5.0                      # Si
46   46   2    116.6306829978066        87.53792498657576        5.0                      # Si
47   47   2    125.96141775899106       87.53792498657576        5.0                      # Si
48   48   2    135.29161382525257       87.53792498657576        5.0                      # Si
49   49   2    144.62234858643706       87.53792498657576        5.0                      # Si
50   50   2    4.665098033130745        87.53792498657576        5.0                      # Si
51   51   2    13.995832794315229       87.53792498657576        5.0                      # Si
52   52   2    23.32602886057672        87.53792498657576        5.0                      # Si
53   53   2    32.6567636217612         87.53792498657576        5.0                      # Si
54   54   2    41.986959688022694       87.53792498657576        5.0                      # Si
55   55   2    83.97445807096838        90.23139960154731        5.0                      # Si
56   56   2    93.30465413722985        90.23139960154731        5.0                      # Si
57   57   2    102.63538889841435       90.23139960154731        5.0                      # Si
58   58   2    111.96558496467584       90.23139960154731        5.0                      # Si
59   59   2    121.29631972586031       90.23139960154731        5.0                      # Si
60   60   2    130.6265157921218        90.23139960154731        5.0                      # Si
61   61   2    139.9572505533063        90.23139960154731        5.0                      # Si
62   62   2    149.2874466195678        90.23139960154731        5.0                      # Si
63   63   2    9.330734761184482        90.23139960154731        5.0                      # Si
64   64   2    18.660930827445974       90.23139960154731        5.0                      # Si
65   65   2    27.991665588630458       90.23139960154731        5.0                      # Si
66   66   2    37.32186165489195        90.23139960154731        5.0                      # Si
67   67   2    46.65259641607642        90.23139960154731        5.0                      # Si
68   68   2    83.97445807096838        95.61834883149044        5.0                      # Si
69   69   2    93.30465413722985        95.61834883149044        5.0                      # Si
70   70   2    102.63538889841435       95.61834883149044        5.0                      # Si
71   71   2    111.96558496467584       95.61834883149044        5.0                      # Si
72   72   2    121.29631972586031       95.61834883149044        5.0                      # Si
73   73   2    130.6265157921218        95.61834883149044        5.0                      # Si
74   74   2    139.9572505533063        95.61834883149044        5.0                      # Si
75   75   2    149.2874466195678        95.61834883149044        5.0                      # Si
76   76   2    9.330734761184482        95.61834883149044        5.0                      # Si
77   77   2    18.660930827445974       95.61834883149044        5.0                      # Si
78   78   2    27.991665588630458       95.61834883149044        5.0                      # Si
79   79   2    37.32186165489195        95.61834883149044        5.0                      # Si
80   80   2    46.65259641607642        95.61834883149044        5.0                      # Si
81   81   2    55.98279248233792        95.61834883149044        5.0                      # Si
82   82   2    74.6437233097839         95.61834883149044        5.0                      # Si
83   83   2    79.30882134291464        98.311823446462          5.0                      # Si
84   84   2    88.63955610409911        98.311823446462          5.0                      # Si
85   85   2    97.9697521703606         98.311823446462          5.0                      # Si
86   86   2    107.3004869315451        98.311823446462          5.0                      # Si
87   87   2    116.6306829978066        98.311823446462          5.0                      # Si
88   88   2    125.96141775899106       98.311823446462          5.0                      # Si
89   89   2    135.29161382525257       98.311823446462          5.0                      # Si
90   90   2    144.62234858643706       98.311823446462          5.0                      # Si
91   91   2    4.665098033130745        98.311823446462          5.0                      # Si
92   92   2    13.995832794315229       98.311823446462          5.0                      # Si
93   93   2    23.32602886057672        98.311823446462          5.0                      # Si
94   94   2    32.6567636217612         98.311823446462          5.0                      # Si
95   95   2    41.986959688022694       98.311823446462          5.0                      # Si
96   96   2    51.317694449207174       98.311823446462          5.0                      # Si
97   97   2    60.64789051546867        98.311823446462          5.0                      # Si
98   98   2    69.97862527665315        98.311823446462          5.0                      # Si
99   99   2    79.30882134291464        103.69877267640511       5.0                      # Si
100  100  2    88.63955610409911        103.69877267640511       5.0                      # Si
101  101  2    97.9697521703606         103.69877267640511       5.0                      # Si
102  102  2    107.3004869315451        103.69877267640511       5.0                      # Si
103  103  2    116.6306829978066        103.69877267640511       5.0                      # Si
104  104  2    125.96141775899106       103.69877267640511       5.0                      # Si
105  105  2    135.29161382525257       103.69877267640511       5.0                      # Si
106  106  2    144.62234858643706       103.69877267640511       5.0                      # Si
107  107  2    4.665098033130745        103.69877267640511       5.0                      # Si
108  108  2    13.995832794315229       103.69877267640511       5.0                      # Si
109  109  2    23.32602886057672        103.69877267640511       5.0                      # Si
110  110  2    32.6567636217612         103.69877267640511       5.0                      # Si
111  111  2    41.986959688022694       103.69877267640511       5.0                      # Si
112  112  2    51.317694449207174       103.69877267640511       5.0                      # Si
113  113  2    60.64789051546867        103.69877267640511       5.0                      # Si
114  114  2    69.97862527665315        103.69877267640511       5.0                      # Si
115  115  2    74.6437233097839         106.39224729137668       5.0                      # Si
116  116  2    83.97445807096838        106.39224729137668       5.0                      # Si
117  117  2    93.30465413722985        106.39224729137668       5.0                      # Si
118  118  2    102.63538889841435       106.39224729137668       5.0                      # Si
119  119  2    111.96558496467584       106.39224729137668       5.0                      # Si
120  120  2    121.29631972586031       106.39224729137668       5.0                      # Si
121  121  2    130.6265157921218        106.39224729137668       5.0                      # Si
122  122  2    139.9572505533063        106.39224729137668       5.0                      # Si
123  123  2    149.2874466195678        106.39224729137668       5.0                      # Si
124  124  2    9.330734761184482        106.39224729137668       5.0                      # Si
125  125  2    18.660930827445974       106.39224729137668       5.0                      # Si
126  126  2    27.991665588630458       106.39224729137668       5.0                      # Si
127  127  2    37.32186165489195        106.39224729137668       5.0                      # Si
128  128  2    46.65259641607642        106.39224729137668       5.0                      # Si
129  129  2    55.98279248233792        106.39224729137668       5.0                      # Si
130  130  2    65.3135272435224         106.39224729137668       5.0                      # Si
131  131  2    83.97445807096838        111.77919652131979       5.0                      # Si
132  132  2    93.30465413722985        111.77919652131979       5.0                      # Si
133  133  2    102.63538889841435       111.77919652131979       5.0                      # Si
134  134  2    111.96558496467584       111.77919652131979       5.0                      # Si
135  135  2    121.29631972586031       111.77919652131979       5.0                      # Si
136  136  2    130.6265157921218        111.77919652131979       5.0                      # Si
137  137  2    139.9572505533063        111.77919652131979       5.0                      # Si
138  138  2    149.2874466195678        111.77919652131979       5.0                      # Si
139  139  2    9.330734761184482        111.77919652131979       5.0                      # Si
140  140  2    18.660930827445974       111.77919652131979       5.0                      # Si
141  141  2    27.991665588630458       111.77919652131979       5.0                      # Si
142  142  2    37.32186165489195        111.77919652131979       5.0                      # Si
143  143  2    46.65259641607642        111.77919652131979       5.0                      # Si
144  144  2    55.98279248233792        111.77919652131979       5.0                      # Si
145  145  2    65.3135272435224         111.77919652131979       5.0                      # Si
146  146  2    74.6437233097839         111.77919652131979       5.0                      # Si
147  147  2    79.30882134291464        114.47267113629137       5.0                      # Si
148  148  2    88.63955610409911        114.47267113629137       5.0                      # Si
149  149  2    97.9697521703606         114.47267113629137       5.0                      # Si
150  150  2    107.3004869315451        114.47267113629137       5.0                      # Si
151  151  2    116.6306829978066        114.47267113629137       5.0                      # Si
152  152  2    125.96141775899106       114.47267113629137       5.0                      # Si
153  153  2    135.29161382525257       114.47267113629137       5.0                      # Si
154  154  2    144.62234858643706       114.47267113629137       5.0                      # Si
155  155  2    4.665098033130745        114.47267113629137       5.0                      # Si
156  156  2    13.995832794315229       114.47267113629137       5.0                      # Si
157  157  2    23.32602886057672        114.47267113629137       5.0                      # Si
158  158  2    32.6567636217612         114.47267113629137       5.0                      # Si
159  159  2    41.986959688022694       114.47267113629137       5.0                      # Si
160  160  2    51.317694449207174       114.47267113629137       5.0                      # Si
161  161  2    60.64789051546867        114.47267113629137       5.0                      # Si
162  162  2    69.97862527665315        114.47267113629137       5.0                      # Si
163  163  2    79.30882134291464        119.8596203662345        5.0                      # Si
164  164  2    88.63955610409911        119.8596203662345        5.0                      # Si
165  165  2    97.9697521703606         119.8596203662345        5.0                      # Si
166  166  2    107.3004869315451        119.8596203662345        5.0                      # Si
167  167  2    116.6306829978066        119.8596203662345        5.0                      # Si
168  168  2    125.96141775899106       119.8596203662345        5.0                      # Si
169  169  2    135.29161382525257       119.8596203662345        5.0                      # Si
170  170  2    144.62234858643706       119.8596203662345        5.0                      # Si
171  171  2    4.665098033130745        119.8596203662345        5.0                      # Si
172  172  2    13.995832794315229       119.8596203662345        5.0                      # Si
173  173  2    23.32602886057672        119.8596203662345        5.0                      # Si
174  174  2    32.6567636217612         119.8596203662345        5.0                      # Si
175  175  2    41.986959688022694       119.8596203662345        5.0                      # Si
176  176  2    51.317694449207174       119.8596203662345        5.0                      # Si
177  177  2    60.64789051546867        119.8596203662345        5.0                      # Si
178  178  2    69.97862527665315        119.8596203662345        5.0                      # Si
179  179  2    74.6437233097839         122.55309498120604       5.0                      # Si
180  180  2    83.97445807096838        122.55309498120604       5.0                      # Si
181  181  2    93.30465413722985        122.55309498120604       5.0                      # Si
182  182  2    102.63538889841435       122.55309498120604       5.0                      # Si
183  183  2    111.96558496467584       122.55309498120604       5.0                      # Si
184  184  2    121.29631972586031       122.55309498120604       5.0                      # Si
185  185  2    130.6265157921218        122.55309498120604       5.0                      # Si
186  186  2    139.9572505533063        122.55309498120604       5.0                      # Si
187  187  2    149.2874466195678        122.55309498120604       5.0                      # Si
188  188  2    9.330734761184482        122.55309498120604       5.0                      # Si
189  189  2    18.660930827445974       122.55309498120604       5.0                      # Si
190  190  2    27.991665588630458       122.55309498120604       5.0                      # Si
191  191  2    37.32186165489195        122.55309498120604       5.0                      # Si
192  192  2    46.65259641607642        122.55309498120604       5.0                      # Si
193  193  2    55.98279248233792        122.55309498120604       5.0                      # Si
194  194  2    65.3135272435224         122.55309498120604       5.0                      # Si
195  195  2    83.97445807096838        127.94004421114917       5.0                      # Si
196  196  2    93.30465413722985        127.94004421114917       5.0                      # Si
197  197  2    102.63538889841435       127.94004421114917       5.0                      # Si
198  198  2    111.96558496467584       127.94004421114917       5.0                      # Si
199  199  2    121.29631972586031       127.94004421114917       5.0                      # Si
200  200  2    130.6265157921218        127.94004421114917       5.0                      # Si
201  201  2    139.9572505533063        127.94004421114917       5.0                      # Si
202  202  2    149.2874466195678        127.94004421114917       5.0                      # Si
203  203  2    9.330734761184482        127.94004421114917       5.0                      # Si
204  204  2    18.660930827445974       127.94004421114917       5.0                      # Si
205  205  2    27.991665588630458       127.94004421114917       5.0                      # Si
206  206  2    37.32186165489195        127.94004421114917       5.0                      # Si
207  207  2    46.65259641607642        127.94004421114917       5.0                      # Si
208  208  2    55.98279248233792        127.94004421114917       5.0                      # Si
209  209  2    65.3135272435224         127.94004421114917       5.0                      # Si
210  210  2    74.6437233097839         127.94004421114917       5.0                      # Si
211  211  2    79.30882134291464        1.3467373074857807       5.0                      # Si
212  212  2    88.63955610409911        1.3467373074857807       5.0                      # Si
213  213  2    97.9697521703606         1.3467373074857807       5.0                      # Si
214  214  2    107.3004869315451        1.3467373074857807       5.0                      # Si
215  215  2    116.6306829978066        1.3467373074857807       5.0                      # Si
216  216  2    125.96141775899106       1.3467373074857807       5.0                      # Si
217  217  2    135.29161382525257       1.3467373074857807       5.0                      # Si
218  218  2    144.62234858643706       1.3467373074857807       5.0                      # Si
219  219  2    4.665098033130745        1.3467373074857807       5.0                      # Si
220  220  2    13.995832794315229       1.3467373074857807       5.0                      # Si
221  221  2    23.32602886057672        1.3467373074857807       5.0                      # Si
222  222  2    32.6567636217612         1.3467373074857807       5.0                      # Si
223  223  2    41.986959688022694       1.3467373074857807       5.0                      # Si
224  224  2    51.317694449207174       1.3467373074857807       5.0                      # Si
225  225  2    60.64789051546867        1.3467373074857807       5.0                      # Si
226  226  2    69.97862527665315        1.3467373074857807       5.0                      # Si
227  227  2    79.30882134291464        6.733686537428904        5.0                      # Si
228  228  2    88.63955610409911        6.733686537428904        5.0                      # Si
229  229  2    97.9697521703606         6.733686537428904        5.0                      # Si
230  230  2    107.3004869315451        6.733686537428904        5.0                      # Si
231  231  2    116.6306829978066        6.733686537428904        5.0                      # Si
232  232  2    125.96141775899106       6.733686537428904        5.0                      # Si
233  233  2    135.29161382525257       6.733686537428904        5.0                      # Si
234  234  2    144.62234858643706       6.733686537428904        5.0                      # Si
235  235  2    4.665098033130745        6.733686537428904        5.0                      # Si
236  236  2    13.995832794315229       6.733686537428904        5.0                      # Si
237  237  2    23.32602886057672        6.733686537428904        5.0                      # Si
238  238  2    32.6567636217612         6.733686537428904        5.0                      # Si
239  239  2    41.986959688022694       6.733686537428904        5.0                      # Si
240  240  2    51.317694449207174       6.733686537428904        5.0                      # Si
241  241  2    60.64789051546867        6.733686537428904        5.0                      # Si
242  242  2    69.97862527665315        6.733686537428904        5.0                      # Si
243  243  2    74.6437233097839         9.427161152400465        5.0                      # Si
244  244  2    83.97445807096838        9.427161152400465        5.0                      # Si
245  245  2    93.30465413722985        9.427161152400465        5.0                      # Si
246  246  2    102.63538889841435       9.427161152400465        5.0                      # Si
247  247  2    111.96558496467584       9.427161152400465        5.0                      # Si
248  248  2    121.29631972586031       9.427161152400465        5.0                      # Si
249  249  2    130.6265157921218        9.427161152400465        5.0                      # Si
250  250  2    139.9572505533063        9.427161152400465        5.0                      # Si
251  251  2    149.2874466195678        9.427161152400465        5.0                      # Si
252  252  2    9.330734761184482        9.427161152400465        5.0                      # Si
253  253  2    18.660930827445974       9.427161152400465        5.0                      # Si
254  254  2    27.991665588630458       9.427161152400465        5.0                      # Si
255  255  2    37.32186165489195        9.427161152400465        5.0                      # Si
256  256  2    46.65259641607642        9.427161152400465        5.0                      # Si
257  257  2    55.98279248233792        9.427161152400465        5.0                      # Si
258  258  2    65.3135272435224         9.427161152400465        5.0                      # Si
259  259  2    83.97445807096838        14.814110382343587       5.0                      # Si
260  260  2    93.30465413722985        14.814110382343587       5.0                      # Si
261  261  2    102.63538889841435       14.814110382343587       5.0                      # Si
262  262  2    111.96558496467584       14.814110382343587       5.0                      # Si
263  263  2    121.29631972586031       14.814110382343587       5.0                      # Si
264  264  2    130.6265157921218        14.814110382343587       5.0                      # Si
265  265  2    139.9572505533063        14.814110382343587       5.0                      # Si
266  266  2    149.2874466195678        14.814110382343587       5.0                      # Si
267  267  2    9.330734761184482        14.814110382343587       5.0                      # Si
268  268  2    18.660930827445974       14.814110382343587       5.0                      # Si
269  269  2    27.991665588630458       14.814110382343587       5.0                      # Si
270  270  2    37.32186165489195        14.814110382343587       5.0                      # Si
271  271  2    46.65259641607642        14.814110382343587       5.0                      # Si
272  272  2    55.98279248233792        14.814110382343587       5.0                      # Si
273  273  2    65.3135272435224         14.814110382343587       5.0                      # Si
274  274  2    74.6437233097839         14.814110382343587       5.0                      # Si
275  275  2    79.30882134291464        17.50758499731515        5.0                      # Si
276  276  2    88.63955610409911        17.50758499731515        5.0                      # Si
277  277  2    97.9697521703606         17.50758499731515        5.0                      # Si
278  278  2    107.3004869315451        17.50758499731515        5.0                      # Si
279  279  2    116.6306829978066        17.50758499731515        5.0                      # Si
280  280  2    125.96141775899106       17.50758499731515        5.0                      # Si
281  281  2    135.29161382525257       17.50758499731515        5.0                      # Si
282  282  2    144.62234858643706       17.50758499731515        5.0                      # Si
283  283  2    4.665098033130745        17.50758499731515        5.0                      # Si
284  284  2    13.995832794315229       17.50758499731515        5.0                      # Si
285  285  2    23.32602886057672        17.50758499731515        5.0                      # Si
286  286  2    32.6567636217612         17.50758499731515        5.0                      # Si
287  287  2    41.986959688022694       17.50758499731515        5.0                      # Si
288  288  2    51.317694449207174       17.50758499731515        5.0                      # Si
289  289  2    60.64789051546867        17.50758499731515        5.0                      # Si
290  290  2    69.97862527665315        17.50758499731515        5.0                      # Si
291  291  2    79.30882134291464        22.894534227258273       5.0                      # Si
292  292  2    88.63955610409911        22.894534227258273       5.0                      # Si
293  293  2    97.9697521703606         22.894534227258273       5.0                      # Si
294  294  2    107.3004869315451        22.894534227258273       5.0                      # Si
295  295  2    116.6306829978066        22.894534227258273       5.0                      # Si
296  296  2    125.96141775899106       22.894534227258273       5.0                      # Si
297  297  2    135.29161382525257       22.894534227258273       5.0                      # Si
298  298  2    144.62234858643706       22.894534227258273       5.0                      # Si
299  299  2    4.665098033130745        22.894534227258273       5.0                      # Si
300  300  2    13.995832794315229       22.894534227258273       5.0                      # Si
301  301  2    23.32602886057672        22.894534227258273       5.0                      # Si
302  302  2    32.6567636217612         22.894534227258273       5.0                      # Si
303  303  2    41.986959688022694       22.894534227258273       5.0                      # Si
304  304  2    51.317694449207174       22.894534227258273       5.0                      # Si
305  305  2    60.64789051546867        22.894534227258273       5.0                      # Si
306  306  2    69.97862527665315        22.894534227258273       5.0                      # Si
307  307  2    74.6437233097839         25.588008842229836       5.0                      # Si
308  308  2    83.97445807096838        25.588008842229836       5.0                      # Si
309  309  2    93.30465413722985        25.588008842229836       5.0                      # Si
310  310  2    102.63538889841435       25.588008842229836       5.0                      # Si
311  311  2    111.96558496467584       25.588008842229836       5.0                      # Si