LAMMPS (23 Jun 2022 - Update 2)
OMP_NUM_THREADS environment is not set. Defaulting to 1 thread. (src/comm.cpp:98)
  using 1 OpenMP thread(s) per MPI task
Reading data file ...
  orthogonal box = (0 0 -0.5) to (26.038433 22.549945 0.5)
  1 by 1 by 1 MPI processor grid
  reading atoms ...
  452 atoms
  scanning bonds ...
  3 = max bonds/atom
  scanning angles ...
  3 = max angles/atom
  reading bonds ...
  678 bonds
  reading angles ...
  1356 angles
Finding 1-2 1-3 1-4 neighbors ...
  special bond factors lj:    0        0        0       
  special bond factors coul:  0        0        0       
     3 = max # of 1-2 neighbors
     6 = max # of 1-3 neighbors
    18 = max # of 1-4 neighbors
    18 = max # of special neighbors
  special bonds CPU = 0.000 seconds
  read_data CPU = 0.006 seconds
Changing box ...
  orthogonal box = (-0.70035478 0 -0.5) to (26.738788 22.549945 0.5)
  orthogonal box = (-0.70035478 -0.38087366 -0.5) to (26.738788 22.930818 0.5)
WARNING: Using 'neigh_modify every 1 delay 0 check yes' setting during minimization (src/min.cpp:187)
Setting up sd style minimization ...
  Unit style    : electron
  Current step  : 0
WARNING: No pairwise cutoff or binsize set. Atom sorting therefore disabled. (src/atom.cpp:2142)
WARNING: Inconsistent image flags (src/domain.cpp:819)
Per MPI rank memory allocation (min/avg/max) = 9.72 | 9.72 | 9.72 Mbytes
---
keywords: ['Step', 'PotEng', 'KinEng', 'E_pair', 'E_bond', 'TotEng', 'Volume', 'Temp', ]
data:
  - [0, 10.9521437260325, 0, 0, 7.00343819700271, 10.9521437260325, 639.652841972664, 0, ]
  - [305, 5.23723323418393, 0, 0, 1.83670318433835, 5.23723323418393, 639.652841972664, 0, ]
...
Loop time of 0.0421022 on 1 procs for 305 steps with 452 atoms

99.9% CPU use with 1 MPI tasks x 1 OpenMP threads

Minimization stats:
  Stopping criterion = energy tolerance
  Energy initial, next-to-last, final = 
      10.9521437260325   5.23723839558924   5.23723323418393
  Force two-norm initial, final = 8.0677305 0.0078931796
  Force max component initial, final = 1.8390375 0.00067939214
  Final line search alpha, max atom move = 1 0.00067939214
  Iterations, force evaluations = 305 608

MPI task timing breakdown:
Section |  min time  |  avg time  |  max time  |%varavg| %total
---------------------------------------------------------------
Pair    | 0          | 0          | 0          |   0.0 |  0.00
Bond    | 0.037274   | 0.037274   | 0.037274   |   0.0 | 88.53
Neigh   | 0          | 0          | 0          |   0.0 |  0.00
Comm    | 0.00088256 | 0.00088256 | 0.00088256 |   0.0 |  2.10
Output  | 0          | 0          | 0          |   0.0 |  0.00
Modify  | 0          | 0          | 0          |   0.0 |  0.00
Other   |            | 0.003945   |            |       |  9.37

Nlocal:            452 ave         452 max         452 min
Histogram: 1 0 0 0 0 0 0 0 0 0
Nghost:            349 ave         349 max         349 min
Histogram: 1 0 0 0 0 0 0 0 0 0
Neighs:              0 ave           0 max           0 min
Histogram: 1 0 0 0 0 0 0 0 0 0

Total # of neighbors = 0
Ave neighs/atom = 0
Ave special neighs/atom = 17.774336
Neighbor list builds = 0
Dangerous builds = 0
Total wall time: 0:00:00
