DATA FILE Produced from netmc results (cf David Morley)
860 atoms
2064 bonds
0 angles
0 dihedrals
0 impropers
2 atom types
2 bond types
0 angle types
0 dihedral types
0 improper types
0.00000 178.68765045108648 xlo xhi
0.00000 156.19508885327997 ylo yhi

# Pair Coeffs
#
# 1  O
# 2  Si

# Bond Coeffs
# 
# 1  O-O
# 2  Si-O
# 3  O-O rep
# 4  Si-Si rep

 Masses

1 28.10000 # O 
2 32.01000 # Si

 Atoms # molecular

1    1    2    150.7677955332403        86.23270530202608        5.0                      # Si
2    2    2    161.93544609700356       86.23270530202608        5.0                      # Si
3    3    2    173.10374137625777       86.23270530202608        5.0                      # Si
4    4    2    5.583825253214876        86.23270530202608        5.0                      # Si
5    5    2    16.752120589802583       86.23270530202608        5.0                      # Si
6    6    2    27.91977109623234        86.23270530202608        5.0                      # Si
7    7    2    145.18397028002542       89.48676962924712        5.0                      # Si
8    8    2    156.35162084378868       89.48676962924712        5.0                      # Si
9    9    2    167.5199161230429        89.48676962924712        5.0                      # Si
10   10   2    178.68756662947263       89.48676962924712        5.0                      # Si
11   11   2    11.168295279254183       89.48676962924712        5.0                      # Si
12   12   2    22.33594584301746        89.48676962924712        5.0                      # Si
13   13   2    33.504241122271644       89.48676962924712        5.0                      # Si
14   14   2    145.18397028002542       95.9948983410227         5.0                      # Si
15   15   2    156.35162084378868       95.9948983410227         5.0                      # Si
16   16   2    167.5199161230429        95.9948983410227         5.0                      # Si
17   17   2    178.68756662947263       95.9948983410227         5.0                      # Si
18   18   2    11.168295279254183       95.9948983410227         5.0                      # Si
19   19   2    22.33594584301746        95.9948983410227         5.0                      # Si
20   20   2    33.504241122271644       95.9948983410227         5.0                      # Si
21   21   2    150.7677955332403        99.24896266824373        5.0                      # Si
22   22   2    161.93544609700356       99.24896266824373        5.0                      # Si
23   23   2    173.10374137625777       99.24896266824373        5.0                      # Si
24   24   2    5.583825253214876        99.24896266824373        5.0                      # Si
25   25   2    16.752120589802583       99.24896266824373        5.0                      # Si
26   26   2    27.91977109623234        99.24896266824373        5.0                      # Si
27   27   2    139.59950025398612       105.75709138001932       5.0                      # Si
28   28   2    150.7677955332403        105.75709138001932       5.0                      # Si
29   29   2    161.93544609700356       105.75709138001932       5.0                      # Si
30   30   2    173.10374137625777       105.75709138001932       5.0                      # Si
31   31   2    5.583825253214876        105.75709138001932       5.0                      # Si
32   32   2    16.752120589802583       105.75709138001932       5.0                      # Si
33   33   2    27.91977109623234        105.75709138001932       5.0                      # Si
34   34   2    39.08806637548652        105.75709138001932       5.0                      # Si
35   35   2    145.18397028002542       109.01115576457387       5.0                      # Si
36   36   2    156.35162084378868       109.01115576457387       5.0                      # Si
37   37   2    167.5199161230429        109.01115576457387       5.0                      # Si
38   38   2    178.68756662947263       109.01115576457387       5.0                      # Si
39   39   2    11.168295279254183       109.01115576457387       5.0                      # Si
40   40   2    22.33594584301746        109.01115576457387       5.0                      # Si
41   41   2    33.504241122271644       109.01115576457387       5.0                      # Si
42   42   2    134.01567500077124       115.51928447634945       5.0                      # Si
43   43   2    145.18397028002542       115.51928447634945       5.0                      # Si
44   44   2    156.35162084378868       115.51928447634945       5.0                      # Si
45   45   2    167.5199161230429        115.51928447634945       5.0                      # Si
46   46   2    178.68756662947263       115.51928447634945       5.0                      # Si
47   47   2    11.168295279254183       115.51928447634945       5.0                      # Si
48   48   2    22.33594584301746        115.51928447634945       5.0                      # Si
49   49   2    33.504241122271644       115.51928447634945       5.0                      # Si
50   50   2    44.67189168603492        115.51928447634945       5.0                      # Si
51   51   2    139.59950025398612       118.77334880357049       5.0                      # Si
52   52   2    150.7677955332403        118.77334880357049       5.0                      # Si
53   53   2    161.93544609700356       118.77334880357049       5.0                      # Si
54   54   2    173.10374137625777       118.77334880357049       5.0                      # Si
55   55   2    5.583825253214876        118.77334880357049       5.0                      # Si
56   56   2    16.752120589802583       118.77334880357049       5.0                      # Si
57   57   2    27.91977109623234        118.77334880357049       5.0                      # Si
58   58   2    39.08806637548652        118.77334880357049       5.0                      # Si
59   59   2    128.43184974755636       125.28147751534607       5.0                      # Si
60   60   2    139.59950025398612       125.28147751534607       5.0                      # Si
61   61   2    150.7677955332403        125.28147751534607       5.0                      # Si
62   62   2    161.93544609700356       125.28147751534607       5.0                      # Si
63   63   2    173.10374137625777       125.28147751534607       5.0                      # Si
64   64   2    5.583825253214876        125.28147751534607       5.0                      # Si
65   65   2    16.752120589802583       125.28147751534607       5.0                      # Si
66   66   2    27.91977109623234        125.28147751534607       5.0                      # Si
67   67   2    39.08806637548652        125.28147751534607       5.0                      # Si
68   68   2    50.255716939249794       125.28147751534607       5.0                      # Si
69   69   2    122.84802449434149       128.53554184256708       5.0                      # Si
70   70   2    134.01567500077124       128.53554184256708       5.0                      # Si
71   71   2    145.18397028002542       128.53554184256708       5.0                      # Si
72   72   2    156.35162084378868       128.53554184256708       5.0                      # Si
73   73   2    167.5199161230429        128.53554184256708       5.0                      # Si
74   74   2    178.68756662947263       128.53554184256708       5.0                      # Si
75   75   2    11.168295279254183       128.53554184256708       5.0                      # Si
76   76   2    22.33594584301746        128.53554184256708       5.0                      # Si
77   77   2    33.504241122271644       128.53554184256708       5.0                      # Si
78   78   2    44.67189168603492        128.53554184256708       5.0                      # Si
79   79   2    55.84018696528911        128.53554184256708       5.0                      # Si
80   80   2    111.67972915775378       135.0436705543427        5.0                      # Si
81   81   2    122.84802449434149       135.0436705543427        5.0                      # Si
82   82   2    134.01567500077124       135.0436705543427        5.0                      # Si
83   83   2    145.18397028002542       135.0436705543427        5.0                      # Si
84   84   2    156.35162084378868       135.0436705543427        5.0                      # Si
85   85   2    167.5199161230429        135.0436705543427        5.0                      # Si
86   86   2    178.68756662947263       135.0436705543427        5.0                      # Si
87   87   2    11.168295279254183       135.0436705543427        5.0                      # Si
88   88   2    22.33594584301746        135.0436705543427        5.0                      # Si
89   89   2    33.504241122271644       135.0436705543427        5.0                      # Si
90   90   2    44.67189168603492        135.0436705543427        5.0                      # Si
91   91   2    55.84018696528911        135.0436705543427        5.0                      # Si
92   92   2    67.00783747171886        135.0436705543427        5.0                      # Si
93   93   2    94.92760856795118        138.2977348815637        5.0                      # Si
94   94   2    106.0959039045389        138.2977348815637        5.0                      # Si
95   95   2    117.26355441096867       138.2977348815637        5.0                      # Si
96   96   2    128.43184974755636       138.2977348815637        5.0                      # Si
97   97   2    139.59950025398612       138.2977348815637        5.0                      # Si
98   98   2    150.7677955332403        138.2977348815637        5.0                      # Si
99   99   2    161.93544609700356       138.2977348815637        5.0                      # Si
100  100  2    173.10374137625777       138.2977348815637        5.0                      # Si
101  101  2    5.583825253214876        138.2977348815637        5.0                      # Si
102  102  2    16.752120589802583       138.2977348815637        5.0                      # Si
103  103  2    27.91977109623234        138.2977348815637        5.0                      # Si
104  104  2    39.08806637548652        138.2977348815637        5.0                      # Si
105  105  2    50.255716939249794       138.2977348815637        5.0                      # Si
106  106  2    61.424012218503975       138.2977348815637        5.0                      # Si
107  107  2    72.59166278226726        138.2977348815637        5.0                      # Si
108  108  2    83.75995806152144        138.2977348815637        5.0                      # Si
109  109  2    94.92760856795118        144.8058635933393        5.0                      # Si
110  110  2    106.0959039045389        144.8058635933393        5.0                      # Si
111  111  2    117.26355441096867       144.8058635933393        5.0                      # Si
112  112  2    128.43184974755636       144.8058635933393        5.0                      # Si
113  113  2    139.59950025398612       144.8058635933393        5.0                      # Si
114  114  2    150.7677955332403        144.8058635933393        5.0                      # Si
115  115  2    161.93544609700356       144.8058635933393        5.0                      # Si
116  116  2    173.10374137625777       144.8058635933393        5.0                      # Si
117  117  2    5.583825253214876        144.8058635933393        5.0                      # Si
118  118  2    16.752120589802583       144.8058635933393        5.0                      # Si
119  119  2    27.91977109623234        144.8058635933393        5.0                      # Si
120  120  2    39.08806637548652        144.8058635933393        5.0                      # Si
121  121  2    50.255716939249794       144.8058635933393        5.0                      # Si
122  122  2    61.424012218503975       144.8058635933393        5.0                      # Si
123  123  2    72.59166278226726        144.8058635933393        5.0                      # Si
124  124  2    83.75995806152144        144.8058635933393        5.0                      # Si
125  125  2    89.34378331473631        148.05992797789386       5.0                      # Si
126  126  2    100.51207865132403       148.05992797789386       5.0                      # Si
127  127  2    111.67972915775378       148.05992797789386       5.0                      # Si
128  128  2    122.84802449434149       148.05992797789386       5.0                      # Si
129  129  2    134.01567500077124       148.05992797789386       5.0                      # Si
130  130  2    145.18397028002542       148.05992797789386       5.0                      # Si
131  131  2    156.35162084378868       148.05992797789386       5.0                      # Si
132  132  2    167.5199161230429        148.05992797789386       5.0                      # Si
133  133  2    178.68756662947263       148.05992797789386       5.0                      # Si
134  134  2    11.168295279254183       148.05992797789386       5.0                      # Si
135  135  2    22.33594584301746        148.05992797789386       5.0                      # Si
136  136  2    33.504241122271644       148.05992797789386       5.0                      # Si
137  137  2    44.67189168603492        148.05992797789386       5.0                      # Si
138  138  2    55.84018696528911        148.05992797789386       5.0                      # Si
139  139  2    67.00783747171886        148.05992797789386       5.0                      # Si
140  140  2    78.17613280830656        148.05992797789386       5.0                      # Si
141  141  2    100.51207865132403       154.56805663233592       5.0                      # Si
142  142  2    111.67972915775378       154.56805663233592       5.0                      # Si
143  143  2    122.84802449434149       154.56805663233592       5.0                      # Si
144  144  2    134.01567500077124       154.56805663233592       5.0                      # Si
145  145  2    145.18397028002542       154.56805663233592       5.0                      # Si
146  146  2    156.35162084378868       154.56805663233592       5.0                      # Si
147  147  2    167.5199161230429        154.56805663233592       5.0                      # Si
148  148  2    178.68756662947263       154.56805663233592       5.0                      # Si
149  149  2    11.168295279254183       154.56805663233592       5.0                      # Si
150  150  2    22.33594584301746        154.56805663233592       5.0                      # Si
151  151  2    33.504241122271644       154.56805663233592       5.0                      # Si
152  152  2    44.67189168603492        154.56805663233592       5.0                      # Si
153  153  2    55.84018696528911        154.56805663233592       5.0                      # Si
154  154  2    67.00783747171886        154.56805663233592       5.0                      # Si
155  155  2    78.17613280830656        154.56805663233592       5.0                      # Si
156  156  2    89.34378331473631        154.56805663233592       5.0                      # Si
157  157  2    94.92760856795118        1.6270321636105152       5.0                      # Si
158  158  2    106.0959039045389        1.6270321636105152       5.0                      # Si
159  159  2    117.26355441096867       1.6270321636105152       5.0                      # Si
160  160  2    128.43184974755636       1.6270321636105152       5.0                      # Si
161  161  2    139.59950025398612       1.6270321636105152       5.0                      # Si
162  162  2    150.7677955332403        1.6270321636105152       5.0                      # Si
163  163  2    161.93544609700356       1.6270321636105152       5.0                      # Si
164  164  2    173.10374137625777       1.6270321636105152       5.0                      # Si
165  165  2    5.583825253214876        1.6270321636105152       5.0                      # Si
166  166  2    16.752120589802583       1.6270321636105152       5.0                      # Si
167  167  2    27.91977109623234        1.6270321636105152       5.0                      # Si
168  168  2    39.08806637548652        1.6270321636105152       5.0                      # Si
169  169  2    50.255716939249794       1.6270321636105152       5.0                      # Si
170  170  2    61.424012218503975       1.6270321636105152       5.0                      # Si
171  171  2    72.59166278226726        1.6270321636105152       5.0                      # Si
172  172  2    83.75995806152144        1.6270321636105152       5.0                      # Si
173  173  2    94.92760856795118        8.135160875386102        5.0                      # Si
174  174  2    106.0959039045389        8.135160875386102        5.0                      # Si
175  175  2    117.26355441096867       8.135160875386102        5.0                      # Si
176  176  2    128.43184974755636       8.135160875386102        5.0                      # Si
177  177  2    139.59950025398612       8.135160875386102        5.0                      # Si
178  178  2    150.7677955332403        8.135160875386102        5.0                      # Si
179  179  2    161.93544609700356       8.135160875386102        5.0                      # Si
180  180  2    173.10374137625777       8.135160875386102        5.0                      # Si
181  181  2    5.583825253214876        8.135160875386102        5.0                      # Si
182  182  2    16.752120589802583       8.135160875386102        5.0                      # Si
183  183  2    27.91977109623234        8.135160875386102        5.0                      # Si
184  184  2    39.08806637548652        8.135160875386102        5.0                      # Si
185  185  2    50.255716939249794       8.135160875386102        5.0                      # Si
186  186  2    61.424012218503975       8.135160875386102        5.0                      # Si
187  187  2    72.59166278226726        8.135160875386102        5.0                      # Si
188  188  2    83.75995806152144        8.135160875386102        5.0                      # Si
189  189  2    89.34378331473631        11.38922520260713        5.0                      # Si
190  190  2    100.51207865132403       11.38922520260713        5.0                      # Si
191  191  2    111.67972915775378       11.38922520260713        5.0                      # Si
192  192  2    122.84802449434149       11.38922520260713        5.0                      # Si
193  193  2    134.01567500077124       11.38922520260713        5.0                      # Si
194  194  2    145.18397028002542       11.38922520260713        5.0                      # Si
195  195  2    156.35162084378868       11.38922520260713        5.0                      # Si
196  196  2    167.5199161230429        11.38922520260713        5.0                      # Si
197  197  2    178.68756662947263       11.38922520260713        5.0                      # Si
198  198  2    11.168295279254183       11.38922520260713        5.0                      # Si
199  199  2    22.33594584301746        11.38922520260713        5.0                      # Si
200  200  2    33.504241122271644       11.38922520260713        5.0                      # Si
201  201  2    44.67189168603492        11.38922520260713        5.0                      # Si
202  202  2    55.84018696528911        11.38922520260713        5.0                      # Si
203  203  2    67.00783747171886        11.38922520260713        5.0                      # Si
204  204  2    78.17613280830656        11.38922520260713        5.0                      # Si
205  205  2    100.51207865132403       17.897353914382716       5.0                      # Si
206  206  2    111.67972915775378       17.897353914382716       5.0                      # Si
207  207  2    122.84802449434149       17.897353914382716       5.0                      # Si
208  208  2    134.01567500077124       17.897353914382716       5.0                      # Si
209  209  2    145.18397028002542       17.897353914382716       5.0                      # Si
210  210  2    156.35162084378868       17.897353914382716       5.0                      # Si
211  211  2    167.5199161230429        17.897353914382716       5.0                      # Si
212  212  2    178.68756662947263       17.897353914382716       5.0                      # Si
213  213  2    11.168295279254183       17.897353914382716       5.0                      # Si
214  214  2    22.33594584301746        17.897353914382716       5.0                      # Si
215  215  2    33.504241122271644       17.897353914382716       5.0                      # Si
216  216  2    44.67189168603492        17.897353914382716       5.0                      # Si
217  217  2    55.84018696528911        17.897353914382716       5.0                      # Si
218  218  2    67.00783747171886        17.897353914382716       5.0                      # Si
219  219  2    78.17613280830656        17.897353914382716       5.0                      # Si
220  220  2    89.34378331473631        17.897353914382716       5.0                      # Si
221  221  2    94.92760856795118        21.151418298937273       5.0                      # Si
222  222  2    106.0959039045389        21.151418298937273       5.0                      # Si
223  223  2    117.26355441096867       21.151418298937273       5.0                      # Si
224  224  2    128.43184974755636       21.151418298937273       5.0                      # Si
225  225  2    139.59950025398612       21.151418298937273       5.0                      # Si
226  226  2    150.7677955332403        21.151418298937273       5.0                      # Si
227  227  2    161.93544609700356       21.151418298937273       5.0                      # Si
228  228  2    173.10374137625777       21.151418298937273       5.0                      # Si
229  229  2    5.583825253214876        21.151418298937273       5.0                      # Si
230  230  2    16.752120589802583       21.151418298937273       5.0                      # Si
231  231  2    27.91977109623234        21.151418298937273       5.0                      # Si
232  232  2    39.08806637548652        21.151418298937273       5.0                      # Si
233  233  2    50.255716939249794       21.151418298937273       5.0                      # Si
234  234  2    61.424012218503975       21.151418298937273       5.0                      # Si
235  235  2    72.59166278226726        21.151418298937273       5.0                      # Si
236  236  2    83.75995806152144        21.151418298937273       5.0                      # Si
237  237  2    94.92760856795118        27.659546953379333       5.0                      # Si
238  238  2    106.0959039045389        27.659546953379333       5.0                      # Si
239  239  2    117.26355441096867       27.659546953379333       5.0                      # Si
240  240  2    128.43184974755636       27.659546953379333       5.0                      # Si
241  241  2    139.59950025398612       27.659546953379333       5.0                      # Si
242  242  2    150.7677955332403        27.659546953379333       5.0                      # Si
243  243  2    161.93544609700356       27.659546953379333       5.0                      # Si
244  244  2    173.10374137625777       27.659546953379333       5.0                      # Si
245  245  2    5.583825253214876        27.659546953379333       5.0                      # Si
246  246  2    16.752120589802583       27.659546953379333       5.0                      # Si
247  247  2    27.91977109623234        27.659546953379333       5.0                      # Si
248  248  2    39.08806637548652        27.659546953379333       5.0                      # Si
249  249  2    50.255716939249794       27.659546953379333       5.0                      # Si
250  250  2    61.424012218503975       27.659546953379333       5.0                      # Si
251  251  2    72.59166278226726        27.659546953379333       5.0                      # Si
252  252  2    83.75995806152144        27.659546953379333       5.0                      # Si
253  253  2    111.67972915775378       30.91361133793389        5.0                      # Si
254  254  2    122.84802449434149       30.91361133793389        5.0                      # Si
255  255  2    134.01567500077124       30.91361133793389        5.0                      # Si
256  256  2    145.18397028002542       30.91361133793389        5.0                      # Si
257  257  2    156.35162084378868       30.91361133793389        5.0                      # Si
258  258  2    167.5199161230429        30.91361133793389        5.0                      # Si
259  259  2    178.68756662947263       30.91361133793389        5.0                      # Si
260  260  2    11.168295279254183       30.91361133793389        5.0                      # Si
261  261  2    22.33594584301746        30.91361133793389        5.0                      # Si
262  262  2    33.504241122271644       30.91361133793389        5.0                      # Si
263  263  2    44.67189168603492        30.91361133793389        5.0                      # Si
264  264  2    55.84018696528911        30.91361133793389        5.0                      # Si
265  265  2    67.00783747171886        30.91361133793389        5.0                      # Si
266  266  2    122.84802449434149       37.42174004970948        5.0                      # Si
267  267  2    134.01567500077124       37.42174004970948        5.0                      # Si
268  268  2    145.18397028002542       37.42174004970948        5.0                      # Si
269  269  2    156.35162084378868       37.42174004970948        5.0                      # Si
270  270  2    167.5199161230429        37.42174004970948        5.0                      # Si
271  271  2    178.68756662947263       37.42174004970948        5.0                      # Si
272  272  2    11.168295279254183       37.42174004970948        5.0                      # Si
273  273  2    22.33594584301746        37.42174004970948        5.0                      # Si
274  274  2    33.504241122271644       37.42174004970948        5.0                      # Si
275  275  2    44.67189168603492        37.42174004970948        5.0                      # Si
276  276  2    55.84018696528911        37.42174004970948        5.0                      # Si
277  277  2    128.43184974755636       40.6758043769305         5.0                      # Si
278  278  2    139.59950025398612       40.6758043769305         5.0                      # Si
279  279  2    150.7677955332403        40.6758043769305         5.0                      # Si
280  280  2    161.93544609700356       40.6758043769305         5.0                      # Si
281  281  2    173.10374137625777       40.6758043769305         5.0                      # Si
282  282  2    5.583825253214876        40.6758043769305         5.0                      # Si
283  283  2    16.752120589802583       40.6758043769305         5.0                      # Si
284  284  2    27.91977109623234        40.6758043769305         5.0                      # Si
285  285  2    39.08806637548652        40.6758043769305         5.0                      # Si
286  286  2    50.255716939249794       40.6758043769305         5.0                      # Si
287  287  2    139.59950025398612       47.183933088706084       5.0                      # Si
288  288  2    150.7677955332403        47.183933088706084       5.0                      # Si
289  289  2    161.93544609700356       47.183933088706084       5.0                      # Si
290  290  2    173.10374137625777       47.183933088706084       5.0                      # Si
291  291  2    5.583825253214876        47.183933088706084       5.0                      # Si
292  292  2    16.752120589802583       47.183933088706084       5.0                      # Si
293  293  2    27.91977109623234        47.183933088706084       5.0                      # Si
294  294  2    39.08806637548652        47.183933088706084       5.0                      # Si
295  295  2    134.01567500077124       50.43799741592712        5.0                      # Si
296  296  2    145.18397028002542       50.43799741592712        5.0                      # Si
297  297  2    156.35162084378868       50.43799741592712        5.0                      # Si
298  298  2    167.5199161230429        50.43799741592712        5.0                      # Si
299  299  2    178.68756662947263       50.43799741592712        5.0                      # Si
300  300  2    11.168295279254183       50.43799741592712        5.0                      # Si
301  301  2    22.33594584301746        50.43799741592712        5.0                      # Si
302  302  2    33.504241122271644       50.43799741592712        5.0                      # Si
303  303  2    44.67189168603492        50.43799741592712        5.0                      # Si
304  304  2    145.18397028002542       56.946126127702705       5.0                      # Si
305  305  2    156.35162084378868       56.946126127702705       5.0                      # Si
306  306  2    167.5199161230429        56.946126127702705       5.0                      # Si
307  307  2    178.68756662947263       56.946126127702705       5.0                      # Si
308  308  2    11.168295279254183       56.946126127702705       5.0                      # Si
309  309  2    22.33594584301746        56.946126127702705       5.0                      # Si
310  310  2    33.504241122271644       56.946126127702705       5.0                      # Si
311  311  2    139.59950025398612       60.200190512257265       5.0                      # Si