DATA FILE Produced from netmc results (cf David Morley)
2064 atoms
6880 bonds
0 angles
0 dihedrals
0 impropers
2 atom types
0 bond types
2 bond types
0 angle types
0 dihedral types
0 improper types
0.00000 178.68765045108648 xlo xhi
0.00000 156.19508885327997 ylo yhi
0.0000 200.0000 zlo zhi

# Pair Coeffs
#
# 1  O
# 2  Si

# Bond Coeffs
# 
# 1  O-O
# 2  Si-O
# 3  O-O rep
# 4  Si-Si rep

 Masses

1 28.10000 # O 
2 32.01000 # Si

 Atoms # molecular

1    1    1    150.7677955332403        86.23270530202608        8.040569334518267        # O
2    2    1    161.93544609700356       86.23270530202608        8.040569334518267        # O
3    3    1    173.10374137625777       86.23270530202608        8.040569334518267        # O
4    4    1    5.583825253214876        86.23270530202608        8.040569334518267        # O
5    5    1    16.752120589802583       86.23270530202608        8.040569334518267        # O
6    6    1    27.91977109623234        86.23270530202608        8.040569334518267        # O
7    7    1    145.18397028002542       89.48676962924712        8.040569334518267        # O
8    8    1    156.35162084378868       89.48676962924712        8.040569334518267        # O
9    9    1    167.5199161230429        89.48676962924712        8.040569334518267        # O
10   10   1    178.68756662947263       89.48676962924712        8.040569334518267        # O
11   11   1    11.168295279254183       89.48676962924712        8.040569334518267        # O
12   12   1    22.33594584301746        89.48676962924712        8.040569334518267        # O
13   13   1    33.504241122271644       89.48676962924712        8.040569334518267        # O
14   14   1    145.18397028002542       95.9948983410227         8.040569334518267        # O
15   15   1    156.35162084378868       95.9948983410227         8.040569334518267        # O
16   16   1    167.5199161230429        95.9948983410227         8.040569334518267        # O
17   17   1    178.68756662947263       95.9948983410227         8.040569334518267        # O
18   18   1    11.168295279254183       95.9948983410227         8.040569334518267        # O
19   19   1    22.33594584301746        95.9948983410227         8.040569334518267        # O
20   20   1    33.504241122271644       95.9948983410227         8.040569334518267        # O
21   21   1    150.7677955332403        99.24896266824373        8.040569334518267        # O
22   22   1    161.93544609700356       99.24896266824373        8.040569334518267        # O
23   23   1    173.10374137625777       99.24896266824373        8.040569334518267        # O
24   24   1    5.583825253214876        99.24896266824373        8.040569334518267        # O
25   25   1    16.752120589802583       99.24896266824373        8.040569334518267        # O
26   26   1    27.91977109623234        99.24896266824373        8.040569334518267        # O
27   27   1    139.59950025398612       105.75709138001932       8.040569334518267        # O
28   28   1    150.7677955332403        105.75709138001932       8.040569334518267        # O
29   29   1    161.93544609700356       105.75709138001932       8.040569334518267        # O
30   30   1    173.10374137625777       105.75709138001932       8.040569334518267        # O
31   31   1    5.583825253214876        105.75709138001932       8.040569334518267        # O
32   32   1    16.752120589802583       105.75709138001932       8.040569334518267        # O
33   33   1    27.91977109623234        105.75709138001932       8.040569334518267        # O
34   34   1    39.08806637548652        105.75709138001932       8.040569334518267        # O
35   35   1    145.18397028002542       109.01115576457387       8.040569334518267        # O
36   36   1    156.35162084378868       109.01115576457387       8.040569334518267        # O
37   37   1    167.5199161230429        109.01115576457387       8.040569334518267        # O
38   38   1    178.68756662947263       109.01115576457387       8.040569334518267        # O
39   39   1    11.168295279254183       109.01115576457387       8.040569334518267        # O
40   40   1    22.33594584301746        109.01115576457387       8.040569334518267        # O
41   41   1    33.504241122271644       109.01115576457387       8.040569334518267        # O
42   42   1    134.01567500077124       115.51928447634945       8.040569334518267        # O
43   43   1    145.18397028002542       115.51928447634945       8.040569334518267        # O
44   44   1    156.35162084378868       115.51928447634945       8.040569334518267        # O
45   45   1    167.5199161230429        115.51928447634945       8.040569334518267        # O
46   46   1    178.68756662947263       115.51928447634945       8.040569334518267        # O
47   47   1    11.168295279254183       115.51928447634945       8.040569334518267        # O
48   48   1    22.33594584301746        115.51928447634945       8.040569334518267        # O
49   49   1    33.504241122271644       115.51928447634945       8.040569334518267        # O
50   50   1    44.67189168603492        115.51928447634945       8.040569334518267        # O
51   51   1    139.59950025398612       118.77334880357049       8.040569334518267        # O
52   52   1    150.7677955332403        118.77334880357049       8.040569334518267        # O
53   53   1    161.93544609700356       118.77334880357049       8.040569334518267        # O
54   54   1    173.10374137625777       118.77334880357049       8.040569334518267        # O
55   55   1    5.583825253214876        118.77334880357049       8.040569334518267        # O
56   56   1    16.752120589802583       118.77334880357049       8.040569334518267        # O
57   57   1    27.91977109623234        118.77334880357049       8.040569334518267        # O
58   58   1    39.08806637548652        118.77334880357049       8.040569334518267        # O
59   59   1    128.43184974755636       125.28147751534607       8.040569334518267        # O
60   60   1    139.59950025398612       125.28147751534607       8.040569334518267        # O
61   61   1    150.7677955332403        125.28147751534607       8.040569334518267        # O
62   62   1    161.93544609700356       125.28147751534607       8.040569334518267        # O
63   63   1    173.10374137625777       125.28147751534607       8.040569334518267        # O
64   64   1    5.583825253214876        125.28147751534607       8.040569334518267        # O
65   65   1    16.752120589802583       125.28147751534607       8.040569334518267        # O
66   66   1    27.91977109623234        125.28147751534607       8.040569334518267        # O
67   67   1    39.08806637548652        125.28147751534607       8.040569334518267        # O
68   68   1    50.255716939249794       125.28147751534607       8.040569334518267        # O
69   69   1    122.84802449434149       128.53554184256708       8.040569334518267        # O
70   70   1    134.01567500077124       128.53554184256708       8.040569334518267        # O
71   71   1    145.18397028002542       128.53554184256708       8.040569334518267        # O
72   72   1    156.35162084378868       128.53554184256708       8.040569334518267        # O
73   73   1    167.5199161230429        128.53554184256708       8.040569334518267        # O
74   74   1    178.68756662947263       128.53554184256708       8.040569334518267        # O
75   75   1    11.168295279254183       128.53554184256708       8.040569334518267        # O
76   76   1    22.33594584301746        128.53554184256708       8.040569334518267        # O
77   77   1    33.504241122271644       128.53554184256708       8.040569334518267        # O
78   78   1    44.67189168603492        128.53554184256708       8.040569334518267        # O
79   79   1    55.84018696528911        128.53554184256708       8.040569334518267        # O
80   80   1    111.67972915775378       135.0436705543427        8.040569334518267        # O
81   81   1    122.84802449434149       135.0436705543427        8.040569334518267        # O
82   82   1    134.01567500077124       135.0436705543427        8.040569334518267        # O
83   83   1    145.18397028002542       135.0436705543427        8.040569334518267        # O
84   84   1    156.35162084378868       135.0436705543427        8.040569334518267        # O
85   85   1    167.5199161230429        135.0436705543427        8.040569334518267        # O
86   86   1    178.68756662947263       135.0436705543427        8.040569334518267        # O
87   87   1    11.168295279254183       135.0436705543427        8.040569334518267        # O
88   88   1    22.33594584301746        135.0436705543427        8.040569334518267        # O
89   89   1    33.504241122271644       135.0436705543427        8.040569334518267        # O
90   90   1    44.67189168603492        135.0436705543427        8.040569334518267        # O
91   91   1    55.84018696528911        135.0436705543427        8.040569334518267        # O
92   92   1    67.00783747171886        135.0436705543427        8.040569334518267        # O
93   93   1    94.92760856795118        138.2977348815637        8.040569334518267        # O
94   94   1    106.0959039045389        138.2977348815637        8.040569334518267        # O
95   95   1    117.26355441096867       138.2977348815637        8.040569334518267        # O
96   96   1    128.43184974755636       138.2977348815637        8.040569334518267        # O
97   97   1    139.59950025398612       138.2977348815637        8.040569334518267        # O
98   98   1    150.7677955332403        138.2977348815637        8.040569334518267        # O
99   99   1    161.93544609700356       138.2977348815637        8.040569334518267        # O
100  100  1    173.10374137625777       138.2977348815637        8.040569334518267        # O
101  101  1    5.583825253214876        138.2977348815637        8.040569334518267        # O
102  102  1    16.752120589802583       138.2977348815637        8.040569334518267        # O
103  103  1    27.91977109623234        138.2977348815637        8.040569334518267        # O
104  104  1    39.08806637548652        138.2977348815637        8.040569334518267        # O
105  105  1    50.255716939249794       138.2977348815637        8.040569334518267        # O
106  106  1    61.424012218503975       138.2977348815637        8.040569334518267        # O
107  107  1    72.59166278226726        138.2977348815637        8.040569334518267        # O
108  108  1    83.75995806152144        138.2977348815637        8.040569334518267        # O
109  109  1    94.92760856795118        144.8058635933393        8.040569334518267        # O
110  110  1    106.0959039045389        144.8058635933393        8.040569334518267        # O
111  111  1    117.26355441096867       144.8058635933393        8.040569334518267        # O
112  112  1    128.43184974755636       144.8058635933393        8.040569334518267        # O
113  113  1    139.59950025398612       144.8058635933393        8.040569334518267        # O
114  114  1    150.7677955332403        144.8058635933393        8.040569334518267        # O
115  115  1    161.93544609700356       144.8058635933393        8.040569334518267        # O
116  116  1    173.10374137625777       144.8058635933393        8.040569334518267        # O
117  117  1    5.583825253214876        144.8058635933393        8.040569334518267        # O
118  118  1    16.752120589802583       144.8058635933393        8.040569334518267        # O
119  119  1    27.91977109623234        144.8058635933393        8.040569334518267        # O
120  120  1    39.08806637548652        144.8058635933393        8.040569334518267        # O
121  121  1    50.255716939249794       144.8058635933393        8.040569334518267        # O
122  122  1    61.424012218503975       144.8058635933393        8.040569334518267        # O
123  123  1    72.59166278226726        144.8058635933393        8.040569334518267        # O
124  124  1    83.75995806152144        144.8058635933393        8.040569334518267        # O
125  125  1    89.34378331473631        148.05992797789386       8.040569334518267        # O
126  126  1    100.51207865132403       148.05992797789386       8.040569334518267        # O
127  127  1    111.67972915775378       148.05992797789386       8.040569334518267        # O
128  128  1    122.84802449434149       148.05992797789386       8.040569334518267        # O
129  129  1    134.01567500077124       148.05992797789386       8.040569334518267        # O
130  130  1    145.18397028002542       148.05992797789386       8.040569334518267        # O
131  131  1    156.35162084378868       148.05992797789386       8.040569334518267        # O
132  132  1    167.5199161230429        148.05992797789386       8.040569334518267        # O
133  133  1    178.68756662947263       148.05992797789386       8.040569334518267        # O
134  134  1    11.168295279254183       148.05992797789386       8.040569334518267        # O
135  135  1    22.33594584301746        148.05992797789386       8.040569334518267        # O
136  136  1    33.504241122271644       148.05992797789386       8.040569334518267        # O
137  137  1    44.67189168603492        148.05992797789386       8.040569334518267        # O
138  138  1    55.84018696528911        148.05992797789386       8.040569334518267        # O
139  139  1    67.00783747171886        148.05992797789386       8.040569334518267        # O
140  140  1    78.17613280830656        148.05992797789386       8.040569334518267        # O
141  141  1    100.51207865132403       154.56805663233592       8.040569334518267        # O
142  142  1    111.67972915775378       154.56805663233592       8.040569334518267        # O
143  143  1    122.84802449434149       154.56805663233592       8.040569334518267        # O
144  144  1    134.01567500077124       154.56805663233592       8.040569334518267        # O
145  145  1    145.18397028002542       154.56805663233592       8.040569334518267        # O
146  146  1    156.35162084378868       154.56805663233592       8.040569334518267        # O
147  147  1    167.5199161230429        154.56805663233592       8.040569334518267        # O
148  148  1    178.68756662947263       154.56805663233592       8.040569334518267        # O
149  149  1    11.168295279254183       154.56805663233592       8.040569334518267        # O
150  150  1    22.33594584301746        154.56805663233592       8.040569334518267        # O
151  151  1    33.504241122271644       154.56805663233592       8.040569334518267        # O
152  152  1    44.67189168603492        154.56805663233592       8.040569334518267        # O
153  153  1    55.84018696528911        154.56805663233592       8.040569334518267        # O
154  154  1    67.00783747171886        154.56805663233592       8.040569334518267        # O
155  155  1    78.17613280830656        154.56805663233592       8.040569334518267        # O
156  156  1    89.34378331473631        154.56805663233592       8.040569334518267        # O
157  157  1    94.92760856795118        1.6270321636105152       8.040569334518267        # O
158  158  1    106.0959039045389        1.6270321636105152       8.040569334518267        # O
159  159  1    117.26355441096867       1.6270321636105152       8.040569334518267        # O
160  160  1    128.43184974755636       1.6270321636105152       8.040569334518267        # O
161  161  1    139.59950025398612       1.6270321636105152       8.040569334518267        # O
162  162  1    150.7677955332403        1.6270321636105152       8.040569334518267        # O
163  163  1    161.93544609700356       1.6270321636105152       8.040569334518267        # O
164  164  1    173.10374137625777       1.6270321636105152       8.040569334518267        # O
165  165  1    5.583825253214876        1.6270321636105152       8.040569334518267        # O
166  166  1    16.752120589802583       1.6270321636105152       8.040569334518267        # O
167  167  1    27.91977109623234        1.6270321636105152       8.040569334518267        # O
168  168  1    39.08806637548652        1.6270321636105152       8.040569334518267        # O
169  169  1    50.255716939249794       1.6270321636105152       8.040569334518267        # O
170  170  1    61.424012218503975       1.6270321636105152       8.040569334518267        # O
171  171  1    72.59166278226726        1.6270321636105152       8.040569334518267        # O
172  172  1    83.75995806152144        1.6270321636105152       8.040569334518267        # O
173  173  1    94.92760856795118        8.135160875386102        8.040569334518267        # O
174  174  1    106.0959039045389        8.135160875386102        8.040569334518267        # O
175  175  1    117.26355441096867       8.135160875386102        8.040569334518267        # O
176  176  1    128.43184974755636       8.135160875386102        8.040569334518267        # O
177  177  1    139.59950025398612       8.135160875386102        8.040569334518267        # O
178  178  1    150.7677955332403        8.135160875386102        8.040569334518267        # O
179  179  1    161.93544609700356       8.135160875386102        8.040569334518267        # O
180  180  1    173.10374137625777       8.135160875386102        8.040569334518267        # O
181  181  1    5.583825253214876        8.135160875386102        8.040569334518267        # O
182  182  1    16.752120589802583       8.135160875386102        8.040569334518267        # O
183  183  1    27.91977109623234        8.135160875386102        8.040569334518267        # O
184  184  1    39.08806637548652        8.135160875386102        8.040569334518267        # O
185  185  1    50.255716939249794       8.135160875386102        8.040569334518267        # O
186  186  1    61.424012218503975       8.135160875386102        8.040569334518267        # O
187  187  1    72.59166278226726        8.135160875386102        8.040569334518267        # O
188  188  1    83.75995806152144        8.135160875386102        8.040569334518267        # O
189  189  1    89.34378331473631        11.38922520260713        8.040569334518267        # O
190  190  1    100.51207865132403       11.38922520260713        8.040569334518267        # O
191  191  1    111.67972915775378       11.38922520260713        8.040569334518267        # O
192  192  1    122.84802449434149       11.38922520260713        8.040569334518267        # O
193  193  1    134.01567500077124       11.38922520260713        8.040569334518267        # O
194  194  1    145.18397028002542       11.38922520260713        8.040569334518267        # O
195  195  1    156.35162084378868       11.38922520260713        8.040569334518267        # O
196  196  1    167.5199161230429        11.38922520260713        8.040569334518267        # O
197  197  1    178.68756662947263       11.38922520260713        8.040569334518267        # O
198  198  1    11.168295279254183       11.38922520260713        8.040569334518267        # O
199  199  1    22.33594584301746        11.38922520260713        8.040569334518267        # O
200  200  1    33.504241122271644       11.38922520260713        8.040569334518267        # O
201  201  1    44.67189168603492        11.38922520260713        8.040569334518267        # O
202  202  1    55.84018696528911        11.38922520260713        8.040569334518267        # O
203  203  1    67.00783747171886        11.38922520260713        8.040569334518267        # O
204  204  1    78.17613280830656        11.38922520260713        8.040569334518267        # O
205  205  1    100.51207865132403       17.897353914382716       8.040569334518267        # O
206  206  1    111.67972915775378       17.897353914382716       8.040569334518267        # O
207  207  1    122.84802449434149       17.897353914382716       8.040569334518267        # O
208  208  1    134.01567500077124       17.897353914382716       8.040569334518267        # O
209  209  1    145.18397028002542       17.897353914382716       8.040569334518267        # O
210  210  1    156.35162084378868       17.897353914382716       8.040569334518267        # O
211  211  1    167.5199161230429        17.897353914382716       8.040569334518267        # O
212  212  1    178.68756662947263       17.897353914382716       8.040569334518267        # O
213  213  1    11.168295279254183       17.897353914382716       8.040569334518267        # O
214  214  1    22.33594584301746        17.897353914382716       8.040569334518267        # O
215  215  1    33.504241122271644       17.897353914382716       8.040569334518267        # O
216  216  1    44.67189168603492        17.897353914382716       8.040569334518267        # O
217  217  1    55.84018696528911        17.897353914382716       8.040569334518267        # O
218  218  1    67.00783747171886        17.897353914382716       8.040569334518267        # O
219  219  1    78.17613280830656        17.897353914382716       8.040569334518267        # O
220  220  1    89.34378331473631        17.897353914382716       8.040569334518267        # O
221  221  1    94.92760856795118        21.151418298937273       8.040569334518267        # O
222  222  1    106.0959039045389        21.151418298937273       8.040569334518267        # O
223  223  1    117.26355441096867       21.151418298937273       8.040569334518267        # O
224  224  1    128.43184974755636       21.151418298937273       8.040569334518267        # O
225  225  1    139.59950025398612       21.151418298937273       8.040569334518267        # O
226  226  1    150.7677955332403        21.151418298937273       8.040569334518267        # O
227  227  1    161.93544609700356       21.151418298937273       8.040569334518267        # O
228  228  1    173.10374137625777       21.151418298937273       8.040569334518267        # O
229  229  1    5.583825253214876        21.151418298937273       8.040569334518267        # O
230  230  1    16.752120589802583       21.151418298937273       8.040569334518267        # O
231  231  1    27.91977109623234        21.151418298937273       8.040569334518267        # O
232  232  1    39.08806637548652        21.151418298937273       8.040569334518267        # O
233  233  1    50.255716939249794       21.151418298937273       8.040569334518267        # O
234  234  1    61.424012218503975       21.151418298937273       8.040569334518267        # O
235  235  1    72.59166278226726        21.151418298937273       8.040569334518267        # O
236  236  1    83.75995806152144        21.151418298937273       8.040569334518267        # O
237  237  1    94.92760856795118        27.659546953379333       8.040569334518267        # O
238  238  1    106.0959039045389        27.659546953379333       8.040569334518267        # O
239  239  1    117.26355441096867       27.659546953379333       8.040569334518267        # O
240  240  1    128.43184974755636       27.659546953379333       8.040569334518267        # O
241  241  1    139.59950025398612       27.659546953379333       8.040569334518267        # O
242  242  1    150.7677955332403        27.659546953379333       8.040569334518267        # O
243  243  1    161.93544609700356       27.659546953379333       8.040569334518267        # O
244  244  1    173.10374137625777       27.659546953379333       8.040569334518267        # O
245  245  1    5.583825253214876        27.659546953379333       8.040569334518267        # O
246  246  1    16.752120589802583       27.659546953379333       8.040569334518267        # O
247  247  1    27.91977109623234        27.659546953379333       8.040569334518267        # O
248  248  1    39.08806637548652        27.659546953379333       8.040569334518267        # O
249  249  1    50.255716939249794       27.659546953379333       8.040569334518267        # O
250  250  1    61.424012218503975       27.659546953379333       8.040569334518267        # O
251  251  1    72.59166278226726        27.659546953379333       8.040569334518267        # O
252  252  1    83.75995806152144        27.659546953379333       8.040569334518267        # O
253  253  1    111.67972915775378       30.91361133793389        8.040569334518267        # O
254  254  1    122.84802449434149       30.91361133793389        8.040569334518267        # O
255  255  1    134.01567500077124       30.91361133793389        8.040569334518267        # O
256  256  1    145.18397028002542       30.91361133793389        8.040569334518267        # O
257  257  1    156.35162084378868       30.91361133793389        8.040569334518267        # O
258  258  1    167.5199161230429        30.91361133793389        8.040569334518267        # O
259  259  1    178.68756662947263       30.91361133793389        8.040569334518267        # O
260  260  1    11.168295279254183       30.91361133793389        8.040569334518267        # O
261  261  1    22.33594584301746        30.91361133793389        8.040569334518267        # O
262  262  1    33.504241122271644       30.91361133793389        8.040569334518267        # O
263  263  1    44.67189168603492        30.91361133793389        8.040569334518267        # O
264  264  1    55.84018696528911        30.91361133793389        8.040569334518267        # O
265  265  1    67.00783747171886        30.91361133793389        8.040569334518267        # O
266  266  1    122.84802449434149       37.42174004970948        8.040569334518267        # O
267  267  1    134.01567500077124       37.42174004970948        8.040569334518267        # O
268  268  1    145.18397028002542       37.42174004970948        8.040569334518267        # O
269  269  1    156.35162084378868       37.42174004970948        8.040569334518267        # O
270  270  1    167.5199161230429        37.42174004970948        8.040569334518267        # O
271  271  1    178.68756662947263       37.42174004970948        8.040569334518267        # O
272  272  1    11.168295279254183       37.42174004970948        8.040569334518267        # O
273  273  1    22.33594584301746        37.42174004970948        8.040569334518267        # O
274  274  1    33.504241122271644       37.42174004970948        8.040569334518267        # O
275  275  1    44.67189168603492        37.42174004970948        8.040569334518267        # O
276  276  1    55.84018696528911        37.42174004970948        8.040569334518267        # O
277  277  1    128.43184974755636       40.6758043769305         8.040569334518267        # O
278  278  1    139.59950025398612       40.6758043769305         8.040569334518267        # O
279  279  1    150.7677955332403        40.6758043769305         8.040569334518267        # O
280  280  1    161.93544609700356       40.6758043769305         8.040569334518267        # O
281  281  1    173.10374137625777       40.6758043769305         8.040569334518267        # O
282  282  1    5.583825253214876        40.6758043769305         8.040569334518267        # O
283  283  1    16.752120589802583       40.6758043769305         8.040569334518267        # O
284  284  1    27.91977109623234        40.6758043769305         8.040569334518267        # O
285  285  1    39.08806637548652        40.6758043769305         8.040569334518267        # O
286  286  1    50.255716939249794       40.6758043769305         8.040569334518267        # O
287  287  1    139.59950025398612       47.183933088706084       8.040569334518267        # O
288  288  1    150.7677955332403        47.183933088706084       8.040569334518267        # O
289  289  1    161.93544609700356       47.183933088706084       8.040569334518267        # O
290  290  1    173.10374137625777       47.183933088706084       8.040569334518267        # O
291  291  1    5.583825253214876        47.183933088706084       8.040569334518267        # O
292  292  1    16.752120589802583       47.183933088706084       8.040569334518267        # O
293  293  1    27.91977109623234        47.183933088706084       8.040569334518267        # O
294  294  1    39.08806637548652        47.183933088706084       8.040569334518267        # O
295  295  1    134.01567500077124       50.43799741592712        8.040569334518267        # O
296  296  1    145.18397028002542       50.43799741592712        8.040569334518267        # O
297  297  1    156.35162084378868       50.43799741592712        8.040569334518267        # O
298  298  1    167.5199161230429        50.43799741592712        8.040569334518267        # O
299  299  1    178.68756662947263       50.43799741592712        8.040569334518267        # O
300  300  1    11.168295279254183       50.43799741592712        8.040569334518267        # O
301  301  1    22.33594584301746        50.43799741592712        8.040569334518267        # O
302  302  1    33.504241122271644       50.43799741592712        8.040569334518267        # O
303  303  1    44.67189168603492        50.43799741592712        8.040569334518267        # O
304  304  1    145.18397028002542       56.946126127702705       8.040569334518267        # O
305  305  1    156.35162084378868       56.946126127702705       8.040569334518267        # O
306  306  1    167.5199161230429        56.946126127702705       8.040569334518267        # O
307  307  1    178.68756662947263       56.946126127702705       8.040569334518267        # O
308  308  1    11.168295279254183       56.946126127702705       8.040569334518267        # O
309  309  1    22.33594584301746        56.946126127702705       8.040569334518267        # O
310  310  1    33.504241122271644       56.946126127702705       8.040569334518267        # O
311  311  1    139.59950025398612       60.200190512257265       8.040569334518267        # O
312  312  1    150.7677955332403        60.200190512257265       8.040569334518267        # O
313  313  1    161.93544609700356       60.200190512257265       8.040569334518267        # O
314  314  1    173.10374137625777       60.200190512257265       8.040569334518267        # O