DATA FILE Produced from netmc results (cf David Morley)
1620 atoms
5400 bonds
0 angles
0 dihedrals
0 impropers
2 atom types
0 bond types
2 bond types
0 angle types
0 dihedral types
0 improper types
0.00000 115.3814954851949 xlo xhi
0.00000 99.9233047304476 ylo yhi
0.0000 200.0000 zlo zhi

# Pair Coeffs
#
# 1  O
# 2  Si

# Bond Coeffs
# 
# 1  O-O
# 2  Si-O
# 3  O-O rep
# 4  Si-Si rep

 Masses

1 28.10000 # O 
2 32.01000 # Si

 Atoms # molecular

1    1    2    81.72838119797453        56.90077074928266        5.0                      # Si
2    2    2    81.72838119797453        56.90077074928266        11.081138669036534       # Si
3    3    2    91.34377876039721        56.90077074928266        5.0                      # Si
4    4    2    91.34377876039721        56.90077074928266        11.081138669036534       # Si
5    5    2    100.95862119334916       56.90077074928266        5.0                      # Si
6    6    2    100.95862119334916       56.90077074928266        11.081138669036534       # Si
7    7    2    110.57401875577186       56.90077074928266        5.0                      # Si
8    8    2    110.57401875577186       56.90077074928266        11.081138669036534       # Si
9    9    2    4.807421216475978        56.90077074928266        5.0                      # Si
10   10   2    4.807421216475978        56.90077074928266        11.081138669036534       # Si
11   11   2    14.42281877889866        56.90077074928266        5.0                      # Si
12   12   2    14.42281877889866        56.90077074928266        11.081138669036534       # Si
13   13   2    24.03766121185061        56.90077074928266        5.0                      # Si
14   14   2    24.03766121185061        56.90077074928266        11.081138669036534       # Si
15   15   2    33.6530587742733         56.90077074928266        5.0                      # Si
16   16   2    33.6530587742733         56.90077074928266        11.081138669036534       # Si
17   17   2    43.26790120722526        56.90077074928266        5.0                      # Si
18   18   2    43.26790120722526        56.90077074928266        11.081138669036534       # Si
19   19   2    57.690719986123916       59.67641810290619        5.0                      # Si
20   20   2    57.690719986123916       59.67641810290619        11.081138669036534       # Si
21   21   2    67.3061175485466         59.67641810290619        5.0                      # Si
22   22   2    67.3061175485466         59.67641810290619        11.081138669036534       # Si
23   23   2    76.92095998149856        59.67641810290619        5.0                      # Si
24   24   2    76.92095998149856        59.67641810290619        11.081138669036534       # Si
25   25   2    86.53635754392123        59.67641810290619        5.0                      # Si
26   26   2    86.53635754392123        59.67641810290619        11.081138669036534       # Si
27   27   2    96.15119997687319        59.67641810290619        5.0                      # Si
28   28   2    96.15119997687319        59.67641810290619        11.081138669036534       # Si
29   29   2    105.76659753929587       59.67641810290619        5.0                      # Si
30   30   2    105.76659753929587       59.67641810290619        11.081138669036534       # Si
31   31   2    115.38143997224783       59.67641810290619        5.0                      # Si
32   32   2    115.38143997224783       59.67641810290619        11.081138669036534       # Si
33   33   2    9.61539756242268         59.67641810290619        5.0                      # Si
34   34   2    9.61539756242268         59.67641810290619        11.081138669036534       # Si
35   35   2    19.23023999537464        59.67641810290619        5.0                      # Si
36   36   2    19.23023999537464        59.67641810290619        11.081138669036534       # Si
37   37   2    28.84563755779732        59.67641810290619        5.0                      # Si
38   38   2    28.84563755779732        59.67641810290619        11.081138669036534       # Si
39   39   2    38.46047999074928        59.67641810290619        5.0                      # Si
40   40   2    38.46047999074928        59.67641810290619        11.081138669036534       # Si
41   41   2    48.075877553171956       59.67641810290619        5.0                      # Si
42   42   2    48.075877553171956       59.67641810290619        11.081138669036534       # Si
43   43   2    67.3061175485466         65.22771281015328        5.0                      # Si
44   44   2    67.3061175485466         65.22771281015328        11.081138669036534       # Si
45   45   2    76.92095998149856        65.22771281015328        5.0                      # Si
46   46   2    76.92095998149856        65.22771281015328        11.081138669036534       # Si
47   47   2    86.53635754392123        65.22771281015328        5.0                      # Si
48   48   2    86.53635754392123        65.22771281015328        11.081138669036534       # Si
49   49   2    96.15119997687319        65.22771281015328        5.0                      # Si
50   50   2    96.15119997687319        65.22771281015328        11.081138669036534       # Si
51   51   2    105.76659753929587       65.22771281015328        5.0                      # Si
52   52   2    105.76659753929587       65.22771281015328        11.081138669036534       # Si
53   53   2    115.38143997224783       65.22771281015328        5.0                      # Si
54   54   2    115.38143997224783       65.22771281015328        11.081138669036534       # Si
55   55   2    9.61539756242268         65.22771281015328        5.0                      # Si
56   56   2    9.61539756242268         65.22771281015328        11.081138669036534       # Si
57   57   2    19.23023999537464        65.22771281015328        5.0                      # Si
58   58   2    19.23023999537464        65.22771281015328        11.081138669036534       # Si
59   59   2    28.84563755779732        65.22771281015328        5.0                      # Si
60   60   2    28.84563755779732        65.22771281015328        11.081138669036534       # Si
61   61   2    38.46047999074928        65.22771281015328        5.0                      # Si
62   62   2    38.46047999074928        65.22771281015328        11.081138669036534       # Si
63   63   2    48.075877553171956       65.22771281015328        5.0                      # Si
64   64   2    48.075877553171956       65.22771281015328        11.081138669036534       # Si
65   65   2    57.690719986123916       65.22771281015328        5.0                      # Si
66   66   2    57.690719986123916       65.22771281015328        11.081138669036534       # Si
67   67   2    62.498141202599896       68.00336016377683        5.0                      # Si
68   68   2    62.498141202599896       68.00336016377683        11.081138669036534       # Si
69   69   2    72.11353876502257        68.00336016377683        5.0                      # Si
70   70   2    72.11353876502257        68.00336016377683        11.081138669036534       # Si
71   71   2    81.72838119797453        68.00336016377683        5.0                      # Si
72   72   2    81.72838119797453        68.00336016377683        11.081138669036534       # Si
73   73   2    91.34377876039721        68.00336016377683        5.0                      # Si
74   74   2    91.34377876039721        68.00336016377683        11.081138669036534       # Si
75   75   2    100.95862119334916       68.00336016377683        5.0                      # Si
76   76   2    100.95862119334916       68.00336016377683        11.081138669036534       # Si
77   77   2    110.57401875577186       68.00336016377683        5.0                      # Si
78   78   2    110.57401875577186       68.00336016377683        11.081138669036534       # Si
79   79   2    4.807421216475978        68.00336016377683        5.0                      # Si
80   80   2    4.807421216475978        68.00336016377683        11.081138669036534       # Si
81   81   2    14.42281877889866        68.00336016377683        5.0                      # Si
82   82   2    14.42281877889866        68.00336016377683        11.081138669036534       # Si
83   83   2    24.03766121185061        68.00336016377683        5.0                      # Si
84   84   2    24.03766121185061        68.00336016377683        11.081138669036534       # Si
85   85   2    33.6530587742733         68.00336016377683        5.0                      # Si
86   86   2    33.6530587742733         68.00336016377683        11.081138669036534       # Si
87   87   2    43.26790120722526        68.00336016377683        5.0                      # Si
88   88   2    43.26790120722526        68.00336016377683        11.081138669036534       # Si
89   89   2    52.883298769647936       68.00336016377683        5.0                      # Si
90   90   2    52.883298769647936       68.00336016377683        11.081138669036534       # Si
91   91   2    62.498141202599896       73.55465487102393        5.0                      # Si
92   92   2    62.498141202599896       73.55465487102393        11.081138669036534       # Si
93   93   2    72.11353876502257        73.55465487102393        5.0                      # Si
94   94   2    72.11353876502257        73.55465487102393        11.081138669036534       # Si
95   95   2    81.72838119797453        73.55465487102393        5.0                      # Si
96   96   2    81.72838119797453        73.55465487102393        11.081138669036534       # Si
97   97   2    91.34377876039721        73.55465487102393        5.0                      # Si
98   98   2    91.34377876039721        73.55465487102393        11.081138669036534       # Si
99   99   2    100.95862119334916       73.55465487102393        5.0                      # Si
100  100  2    100.95862119334916       73.55465487102393        11.081138669036534       # Si
101  101  2    110.57401875577186       73.55465487102393        5.0                      # Si
102  102  2    110.57401875577186       73.55465487102393        11.081138669036534       # Si
103  103  2    4.807421216475978        73.55465487102393        5.0                      # Si
104  104  2    4.807421216475978        73.55465487102393        11.081138669036534       # Si
105  105  2    14.42281877889866        73.55465487102393        5.0                      # Si
106  106  2    14.42281877889866        73.55465487102393        11.081138669036534       # Si
107  107  2    24.03766121185061        73.55465487102393        5.0                      # Si
108  108  2    24.03766121185061        73.55465487102393        11.081138669036534       # Si
109  109  2    33.6530587742733         73.55465487102393        5.0                      # Si
110  110  2    33.6530587742733         73.55465487102393        11.081138669036534       # Si
111  111  2    43.26790120722526        73.55465487102393        5.0                      # Si
112  112  2    43.26790120722526        73.55465487102393        11.081138669036534       # Si
113  113  2    52.883298769647936       73.55465487102393        5.0                      # Si
114  114  2    52.883298769647936       73.55465487102393        11.081138669036534       # Si
115  115  2    57.690719986123916       76.33030222464745        5.0                      # Si
116  116  2    57.690719986123916       76.33030222464745        11.081138669036534       # Si
117  117  2    67.3061175485466         76.33030222464745        5.0                      # Si
118  118  2    67.3061175485466         76.33030222464745        11.081138669036534       # Si
119  119  2    76.92095998149856        76.33030222464745        5.0                      # Si
120  120  2    76.92095998149856        76.33030222464745        11.081138669036534       # Si
121  121  2    86.53635754392123        76.33030222464745        5.0                      # Si
122  122  2    86.53635754392123        76.33030222464745        11.081138669036534       # Si
123  123  2    96.15119997687319        76.33030222464745        5.0                      # Si
124  124  2    96.15119997687319        76.33030222464745        11.081138669036534       # Si
125  125  2    105.76659753929587       76.33030222464745        5.0                      # Si
126  126  2    105.76659753929587       76.33030222464745        11.081138669036534       # Si
127  127  2    115.38143997224783       76.33030222464745        5.0                      # Si
128  128  2    115.38143997224783       76.33030222464745        11.081138669036534       # Si
129  129  2    9.61539756242268         76.33030222464745        5.0                      # Si
130  130  2    9.61539756242268         76.33030222464745        11.081138669036534       # Si
131  131  2    19.23023999537464        76.33030222464745        5.0                      # Si
132  132  2    19.23023999537464        76.33030222464745        11.081138669036534       # Si
133  133  2    28.84563755779732        76.33030222464745        5.0                      # Si
134  134  2    28.84563755779732        76.33030222464745        11.081138669036534       # Si
135  135  2    38.46047999074928        76.33030222464745        5.0                      # Si
136  136  2    38.46047999074928        76.33030222464745        11.081138669036534       # Si
137  137  2    48.075877553171956       76.33030222464745        5.0                      # Si
138  138  2    48.075877553171956       76.33030222464745        11.081138669036534       # Si
139  139  2    67.3061175485466         81.88159693189455        5.0                      # Si
140  140  2    67.3061175485466         81.88159693189455        11.081138669036534       # Si
141  141  2    76.92095998149856        81.88159693189455        5.0                      # Si
142  142  2    76.92095998149856        81.88159693189455        11.081138669036534       # Si
143  143  2    86.53635754392123        81.88159693189455        5.0                      # Si
144  144  2    86.53635754392123        81.88159693189455        11.081138669036534       # Si
145  145  2    96.15119997687319        81.88159693189455        5.0                      # Si
146  146  2    96.15119997687319        81.88159693189455        11.081138669036534       # Si
147  147  2    105.76659753929587       81.88159693189455        5.0                      # Si
148  148  2    105.76659753929587       81.88159693189455        11.081138669036534       # Si
149  149  2    115.38143997224783       81.88159693189455        5.0                      # Si
150  150  2    115.38143997224783       81.88159693189455        11.081138669036534       # Si
151  151  2    9.61539756242268         81.88159693189455        5.0                      # Si
152  152  2    9.61539756242268         81.88159693189455        11.081138669036534       # Si
153  153  2    19.23023999537464        81.88159693189455        5.0                      # Si
154  154  2    19.23023999537464        81.88159693189455        11.081138669036534       # Si
155  155  2    28.84563755779732        81.88159693189455        5.0                      # Si
156  156  2    28.84563755779732        81.88159693189455        11.081138669036534       # Si
157  157  2    38.46047999074928        81.88159693189455        5.0                      # Si
158  158  2    38.46047999074928        81.88159693189455        11.081138669036534       # Si
159  159  2    48.075877553171956       81.88159693189455        5.0                      # Si
160  160  2    48.075877553171956       81.88159693189455        11.081138669036534       # Si
161  161  2    57.690719986123916       81.88159693189455        5.0                      # Si
162  162  2    57.690719986123916       81.88159693189455        11.081138669036534       # Si
163  163  2    62.498141202599896       84.65724428551809        5.0                      # Si
164  164  2    62.498141202599896       84.65724428551809        11.081138669036534       # Si
165  165  2    72.11353876502257        84.65724428551809        5.0                      # Si
166  166  2    72.11353876502257        84.65724428551809        11.081138669036534       # Si
167  167  2    81.72838119797453        84.65724428551809        5.0                      # Si
168  168  2    81.72838119797453        84.65724428551809        11.081138669036534       # Si
169  169  2    91.34377876039721        84.65724428551809        5.0                      # Si
170  170  2    91.34377876039721        84.65724428551809        11.081138669036534       # Si
171  171  2    100.95862119334916       84.65724428551809        5.0                      # Si
172  172  2    100.95862119334916       84.65724428551809        11.081138669036534       # Si
173  173  2    110.57401875577186       84.65724428551809        5.0                      # Si
174  174  2    110.57401875577186       84.65724428551809        11.081138669036534       # Si
175  175  2    4.807421216475978        84.65724428551809        5.0                      # Si
176  176  2    4.807421216475978        84.65724428551809        11.081138669036534       # Si
177  177  2    14.42281877889866        84.65724428551809        5.0                      # Si
178  178  2    14.42281877889866        84.65724428551809        11.081138669036534       # Si
179  179  2    24.03766121185061        84.65724428551809        5.0                      # Si
180  180  2    24.03766121185061        84.65724428551809        11.081138669036534       # Si
181  181  2    33.6530587742733         84.65724428551809        5.0                      # Si
182  182  2    33.6530587742733         84.65724428551809        11.081138669036534       # Si
183  183  2    43.26790120722526        84.65724428551809        5.0                      # Si
184  184  2    43.26790120722526        84.65724428551809        11.081138669036534       # Si
185  185  2    52.883298769647936       84.65724428551809        5.0                      # Si
186  186  2    52.883298769647936       84.65724428551809        11.081138669036534       # Si
187  187  2    62.498141202599896       90.20853899276517        5.0                      # Si
188  188  2    62.498141202599896       90.20853899276517        11.081138669036534       # Si
189  189  2    72.11353876502257        90.20853899276517        5.0                      # Si
190  190  2    72.11353876502257        90.20853899276517        11.081138669036534       # Si
191  191  2    81.72838119797453        90.20853899276517        5.0                      # Si
192  192  2    81.72838119797453        90.20853899276517        11.081138669036534       # Si
193  193  2    91.34377876039721        90.20853899276517        5.0                      # Si
194  194  2    91.34377876039721        90.20853899276517        11.081138669036534       # Si
195  195  2    100.95862119334916       90.20853899276517        5.0                      # Si
196  196  2    100.95862119334916       90.20853899276517        11.081138669036534       # Si
197  197  2    110.57401875577186       90.20853899276517        5.0                      # Si
198  198  2    110.57401875577186       90.20853899276517        11.081138669036534       # Si
199  199  2    4.807421216475978        90.20853899276517        5.0                      # Si
200  200  2    4.807421216475978        90.20853899276517        11.081138669036534       # Si
201  201  2    14.42281877889866        90.20853899276517        5.0                      # Si
202  202  2    14.42281877889866        90.20853899276517        11.081138669036534       # Si
203  203  2    24.03766121185061        90.20853899276517        5.0                      # Si
204  204  2    24.03766121185061        90.20853899276517        11.081138669036534       # Si
205  205  2    33.6530587742733         90.20853899276517        5.0                      # Si
206  206  2    33.6530587742733         90.20853899276517        11.081138669036534       # Si
207  207  2    43.26790120722526        90.20853899276517        5.0                      # Si
208  208  2    43.26790120722526        90.20853899276517        11.081138669036534       # Si
209  209  2    52.883298769647936       90.20853899276517        5.0                      # Si
210  210  2    52.883298769647936       90.20853899276517        11.081138669036534       # Si
211  211  2    57.690719986123916       92.98418634638873        5.0                      # Si
212  212  2    57.690719986123916       92.98418634638873        11.081138669036534       # Si
213  213  2    67.3061175485466         92.98418634638873        5.0                      # Si
214  214  2    67.3061175485466         92.98418634638873        11.081138669036534       # Si
215  215  2    76.92095998149856        92.98418634638873        5.0                      # Si
216  216  2    76.92095998149856        92.98418634638873        11.081138669036534       # Si
217  217  2    86.53635754392123        92.98418634638873        5.0                      # Si
218  218  2    86.53635754392123        92.98418634638873        11.081138669036534       # Si
219  219  2    96.15119997687319        92.98418634638873        5.0                      # Si
220  220  2    96.15119997687319        92.98418634638873        11.081138669036534       # Si
221  221  2    105.76659753929587       92.98418634638873        5.0                      # Si
222  222  2    105.76659753929587       92.98418634638873        11.081138669036534       # Si
223  223  2    115.38143997224783       92.98418634638873        5.0                      # Si
224  224  2    115.38143997224783       92.98418634638873        11.081138669036534       # Si
225  225  2    9.61539756242268         92.98418634638873        5.0                      # Si
226  226  2    9.61539756242268         92.98418634638873        11.081138669036534       # Si
227  227  2    19.23023999537464        92.98418634638873        5.0                      # Si
228  228  2    19.23023999537464        92.98418634638873        11.081138669036534       # Si
229  229  2    28.84563755779732        92.98418634638873        5.0                      # Si
230  230  2    28.84563755779732        92.98418634638873        11.081138669036534       # Si
231  231  2    38.46047999074928        92.98418634638873        5.0                      # Si
232  232  2    38.46047999074928        92.98418634638873        11.081138669036534       # Si
233  233  2    48.075877553171956       92.98418634638873        5.0                      # Si
234  234  2    48.075877553171956       92.98418634638873        11.081138669036534       # Si
235  235  2    67.3061175485466         98.53548105363582        5.0                      # Si
236  236  2    67.3061175485466         98.53548105363582        11.081138669036534       # Si
237  237  2    76.92095998149856        98.53548105363582        5.0                      # Si
238  238  2    76.92095998149856        98.53548105363582        11.081138669036534       # Si
239  239  2    86.53635754392123        98.53548105363582        5.0                      # Si
240  240  2    86.53635754392123        98.53548105363582        11.081138669036534       # Si
241  241  2    96.15119997687319        98.53548105363582        5.0                      # Si
242  242  2    96.15119997687319        98.53548105363582        11.081138669036534       # Si
243  243  2    105.76659753929587       98.53548105363582        5.0                      # Si
244  244  2    105.76659753929587       98.53548105363582        11.081138669036534       # Si
245  245  2    115.38143997224783       98.53548105363582        5.0                      # Si
246  246  2    115.38143997224783       98.53548105363582        11.081138669036534       # Si
247  247  2    9.61539756242268         98.53548105363582        5.0                      # Si
248  248  2    9.61539756242268         98.53548105363582        11.081138669036534       # Si
249  249  2    19.23023999537464        98.53548105363582        5.0                      # Si
250  250  2    19.23023999537464        98.53548105363582        11.081138669036534       # Si
251  251  2    28.84563755779732        98.53548105363582        5.0                      # Si
252  252  2    28.84563755779732        98.53548105363582        11.081138669036534       # Si
253  253  2    38.46047999074928        98.53548105363582        5.0                      # Si
254  254  2    38.46047999074928        98.53548105363582        11.081138669036534       # Si
255  255  2    48.075877553171956       98.53548105363582        5.0                      # Si
256  256  2    48.075877553171956       98.53548105363582        11.081138669036534       # Si
257  257  2    57.690719986123916       98.53548105363582        5.0                      # Si
258  258  2    57.690719986123916       98.53548105363582        11.081138669036534       # Si
259  259  2    62.498141202599896       1.387823676811772        5.0                      # Si
260  260  2    62.498141202599896       1.387823676811772        11.081138669036534       # Si
261  261  2    72.11353876502257        1.387823676811772        5.0                      # Si
262  262  2    72.11353876502257        1.387823676811772        11.081138669036534       # Si
263  263  2    81.72838119797453        1.387823676811772        5.0                      # Si
264  264  2    81.72838119797453        1.387823676811772        11.081138669036534       # Si
265  265  2    91.34377876039721        1.387823676811772        5.0                      # Si
266  266  2    91.34377876039721        1.387823676811772        11.081138669036534       # Si
267  267  2    100.95862119334916       1.387823676811772        5.0                      # Si
268  268  2    100.95862119334916       1.387823676811772        11.081138669036534       # Si
269  269  2    110.57401875577186       1.387823676811772        5.0                      # Si
270  270  2    110.57401875577186       1.387823676811772        11.081138669036534       # Si
271  271  2    4.807421216475978        1.387823676811772        5.0                      # Si
272  272  2    4.807421216475978        1.387823676811772        11.081138669036534       # Si
273  273  2    14.42281877889866        1.387823676811772        5.0                      # Si
274  274  2    14.42281877889866        1.387823676811772        11.081138669036534       # Si
275  275  2    24.03766121185061        1.387823676811772        5.0                      # Si
276  276  2    24.03766121185061        1.387823676811772        11.081138669036534       # Si
277  277  2    33.6530587742733         1.387823676811772        5.0                      # Si
278  278  2    33.6530587742733         1.387823676811772        11.081138669036534       # Si
279  279  2    43.26790120722526        1.387823676811772        5.0                      # Si
280  280  2    43.26790120722526        1.387823676811772        11.081138669036534       # Si
281  281  2    52.883298769647936       1.387823676811772        5.0                      # Si
282  282  2    52.883298769647936       1.387823676811772        11.081138669036534       # Si
283  283  2    62.498141202599896       6.93911838405886         5.0                      # Si
284  284  2    62.498141202599896       6.93911838405886         11.081138669036534       # Si
285  285  2    72.11353876502257        6.93911838405886         5.0                      # Si
286  286  2    72.11353876502257        6.93911838405886         11.081138669036534       # Si
287  287  2    81.72838119797453        6.93911838405886         5.0                      # Si
288  288  2    81.72838119797453        6.93911838405886         11.081138669036534       # Si
289  289  2    91.34377876039721        6.93911838405886         5.0                      # Si
290  290  2    91.34377876039721        6.93911838405886         11.081138669036534       # Si
291  291  2    100.95862119334916       6.93911838405886         5.0                      # Si
292  292  2    100.95862119334916       6.93911838405886         11.081138669036534       # Si
293  293  2    110.57401875577186       6.93911838405886         5.0                      # Si
294  294  2    110.57401875577186       6.93911838405886         11.081138669036534       # Si
295  295  2    4.807421216475978        6.93911838405886         5.0                      # Si
296  296  2    4.807421216475978        6.93911838405886         11.081138669036534       # Si
297  297  2    14.42281877889866        6.93911838405886         5.0                      # Si
298  298  2    14.42281877889866        6.93911838405886         11.081138669036534       # Si
299  299  2    24.03766121185061        6.93911838405886         5.0                      # Si
300  300  2    24.03766121185061        6.93911838405886         11.081138669036534       # Si
301  301  2    33.6530587742733         6.93911838405886         5.0                      # Si
302  302  2    33.6530587742733         6.93911838405886         11.081138669036534       # Si
303  303  2    43.26790120722526        6.93911838405886         5.0                      # Si
304  304  2    43.26790120722526        6.93911838405886         11.081138669036534       # Si
305  305  2    52.883298769647936       6.93911838405886         5.0                      # Si
306  306  2    52.883298769647936       6.93911838405886         11.081138669036534       # Si
307  307  2    57.690719986123916       9.714765737682404        5.0                      # Si
308  308  2    57.690719986123916       9.714765737682404        11.081138669036534       # Si
309  309  2    67.3061175485466         9.714765737682404        5.0                      # Si
310  310  2    67.3061175485466         9.714765737682404        11.081138669036534       # Si
311  311  2    76.92095998149856        9.714765737682404        5.0                      # Si