LAMMPS (23 Jun 2022 - Update 2)
OMP_NUM_THREADS environment is not set. Defaulting to 1 thread. (src/comm.cpp:98)
  using 1 OpenMP thread(s) per MPI task
Reading data file ...
  orthogonal box = (0 0 -0.5) to (27.440846 23.764469 0.5)
  1 by 1 by 1 MPI processor grid
  reading atoms ...
  502 atoms
  scanning bonds ...
  3 = max bonds/atom
  scanning angles ...
  3 = max angles/atom
  reading bonds ...
  753 bonds
  reading angles ...
  1506 angles
Finding 1-2 1-3 1-4 neighbors ...
  special bond factors lj:    0        0        0       
  special bond factors coul:  0        0        0       
     3 = max # of 1-2 neighbors
     6 = max # of 1-3 neighbors
    18 = max # of 1-4 neighbors
    18 = max # of special neighbors
  special bonds CPU = 0.000 seconds
  read_data CPU = 0.008 seconds
Changing box ...
  orthogonal box = (-0.086443694 0 -0.5) to (27.527289 23.764469 0.5)
  orthogonal box = (-0.086443694 -0.027584866 -0.5) to (27.527289 23.792054 0.5)
WARNING: Using 'neigh_modify every 1 delay 0 check yes' setting during minimization (src/min.cpp:187)
Setting up sd style minimization ...
  Unit style    : electron
  Current step  : 0
WARNING: No pairwise cutoff or binsize set. Atom sorting therefore disabled. (src/atom.cpp:2142)
WARNING: Inconsistent image flags (src/domain.cpp:819)
Per MPI rank memory allocation (min/avg/max) = 9.726 | 9.726 | 9.726 Mbytes
---
keywords: ['Step', 'PotEng', 'KinEng', 'E_pair', 'E_bond', 'TotEng', 'Volume', 'Temp', ]
data:
  - [0, 5.14291155628071, 0, 0, 3.14281180815406, 5.14291155628071, 657.749150152319, 0, ]
  - [361, 1.97874033089549, 0, 0, 0.402750341418875, 1.97874033089549, 657.749150152319, 0, ]
...
Loop time of 0.0689301 on 1 procs for 361 steps with 502 atoms

99.2% CPU use with 1 MPI tasks x 1 OpenMP threads

Minimization stats:
  Stopping criterion = energy tolerance
  Energy initial, next-to-last, final = 
      5.14291155628071   1.97874230524919   1.97874033089549
  Force two-norm initial, final = 5.4522929 0.0052085494
  Force max component initial, final = 1.8840809 0.00032098856
  Final line search alpha, max atom move = 1 0.00032098856
  Iterations, force evaluations = 361 718

MPI task timing breakdown:
Section |  min time  |  avg time  |  max time  |%varavg| %total
---------------------------------------------------------------
Pair    | 0          | 0          | 0          |   0.0 |  0.00
Bond    | 0.061155   | 0.061155   | 0.061155   |   0.0 | 88.72
Neigh   | 0          | 0          | 0          |   0.0 |  0.00
Comm    | 0.001626   | 0.001626   | 0.001626   |   0.0 |  2.36
Output  | 0          | 0          | 0          |   0.0 |  0.00
Modify  | 0          | 0          | 0          |   0.0 |  0.00
Other   |            | 0.006149   |            |       |  8.92

Nlocal:            502 ave         502 max         502 min
Histogram: 1 0 0 0 0 0 0 0 0 0
Nghost:            349 ave         349 max         349 min
Histogram: 1 0 0 0 0 0 0 0 0 0
Neighs:              0 ave           0 max           0 min
Histogram: 1 0 0 0 0 0 0 0 0 0

Total # of neighbors = 0
Ave neighs/atom = 0
Ave special neighs/atom = 17.900398
Neighbor list builds = 0
Dangerous builds = 0
Total wall time: 0:00:00
