DATA FILE Produced from netmc results (cf David Morley)
1255 atoms
3012 bonds
0 angles
0 dihedrals
0 impropers
2 atom types
2 bond types
0 angle types
0 dihedral types
0 improper types
0.00000 159.8883739650418 xlo xhi
0.00000 137.9199029944639 ylo yhi

# Pair Coeffs
#
# 1  O
# 2  Si

# Bond Coeffs
# 
# 1  O-O
# 2  Si-O
# 3  O-O rep
# 4  Si-Si rep

 Masses

1 28.10000 # O 
2 32.01000 # Si

 Atoms # molecular

1    1    2    104.92655197124463       76.14327979192977        5.0                      # Si
2    2    2    114.91985914500951       76.14327979192977        5.0                      # Si
3    3    2    124.91258931417674       76.14327979192977        5.0                      # Si
4    4    2    134.90589648794162       76.14327979192977        5.0                      # Si
5    5    2    144.89862671444237       76.14327979192977        5.0                      # Si
6    6    2    154.8919338882072        76.14327979192977        5.0                      # Si
7    7    2    4.996365084583613        76.14327979192977        5.0                      # Si
8    8    2    14.98967225834848        76.14327979192977        5.0                      # Si
9    9    2    24.982402484849228       76.14327979192977        5.0                      # Si
10   10   2    34.9757096586141         76.14327979192977        5.0                      # Si
11   11   2    44.968439827781324       76.14327979192977        5.0                      # Si
12   12   2    54.96174700154619        76.14327979192977        5.0                      # Si
13   13   2    64.95447722804694        76.14327979192977        5.0                      # Si
14   14   2    74.94778440181182        76.14327979192977        5.0                      # Si
15   15   2    79.94414948639542        79.0166110983422         5.0                      # Si
16   16   2    99.93018682932751        79.0166110983422         5.0                      # Si
17   17   2    109.92349400309239       79.0166110983422         5.0                      # Si
18   18   2    119.91622422959313       79.0166110983422         5.0                      # Si
19   19   2    129.909531403358         79.0166110983422         5.0                      # Si
20   20   2    139.90226157252522       79.0166110983422         5.0                      # Si
21   21   2    149.89556874629008       79.0166110983422         5.0                      # Si
22   22   2    159.88829897279084       79.0166110983422         5.0                      # Si
23   23   2    9.993307173764867        79.0166110983422         5.0                      # Si
24   24   2    19.986037342932093       79.0166110983422         5.0                      # Si
25   25   2    29.97934451669696        79.0166110983422         5.0                      # Si
26   26   2    39.97207474319771        79.0166110983422         5.0                      # Si
27   27   2    49.96538191696258        79.0166110983422         5.0                      # Si
28   28   2    59.958112086129795       79.0166110983422         5.0                      # Si
29   29   2    69.95141925989466        79.0166110983422         5.0                      # Si
30   30   2    89.93745666016028        84.76327371116705        5.0                      # Si
31   31   2    99.93018682932751        84.76327371116705        5.0                      # Si
32   32   2    109.92349400309239       84.76327371116705        5.0                      # Si
33   33   2    119.91622422959313       84.76327371116705        5.0                      # Si
34   34   2    129.909531403358         84.76327371116705        5.0                      # Si
35   35   2    139.90226157252522       84.76327371116705        5.0                      # Si
36   36   2    149.89556874629008       84.76327371116705        5.0                      # Si
37   37   2    159.88829897279084       84.76327371116705        5.0                      # Si
38   38   2    9.993307173764867        84.76327371116705        5.0                      # Si
39   39   2    19.986037342932093       84.76327371116705        5.0                      # Si
40   40   2    29.97934451669696        84.76327371116705        5.0                      # Si
41   41   2    39.97207474319771        84.76327371116705        5.0                      # Si
42   42   2    49.96538191696258        84.76327371116705        5.0                      # Si
43   43   2    59.958112086129795       84.76327371116705        5.0                      # Si
44   44   2    69.95141925989466        84.76327371116705        5.0                      # Si
45   45   2    79.94414948639542        84.76327371116705        5.0                      # Si
46   46   2    84.94051457097903        87.63660501757946        5.0                      # Si
47   47   2    94.9338217447439         87.63660501757946        5.0                      # Si
48   48   2    104.92655197124463       87.63660501757946        5.0                      # Si
49   49   2    114.91985914500951       87.63660501757946        5.0                      # Si
50   50   2    124.91258931417674       87.63660501757946        5.0                      # Si
51   51   2    134.90589648794162       87.63660501757946        5.0                      # Si
52   52   2    144.89862671444237       87.63660501757946        5.0                      # Si
53   53   2    154.8919338882072        87.63660501757946        5.0                      # Si
54   54   2    4.996365084583613        87.63660501757946        5.0                      # Si
55   55   2    14.98967225834848        87.63660501757946        5.0                      # Si
56   56   2    24.982402484849228       87.63660501757946        5.0                      # Si
57   57   2    34.9757096586141         87.63660501757946        5.0                      # Si
58   58   2    44.968439827781324       87.63660501757946        5.0                      # Si
59   59   2    54.96174700154619        87.63660501757946        5.0                      # Si
60   60   2    64.95447722804694        87.63660501757946        5.0                      # Si
61   61   2    74.94778440181182        87.63660501757946        5.0                      # Si
62   62   2    84.94051457097903        93.3832676304043         5.0                      # Si
63   63   2    94.9338217447439         93.3832676304043         5.0                      # Si
64   64   2    104.92655197124463       93.3832676304043         5.0                      # Si
65   65   2    114.91985914500951       93.3832676304043         5.0                      # Si
66   66   2    124.91258931417674       93.3832676304043         5.0                      # Si
67   67   2    134.90589648794162       93.3832676304043         5.0                      # Si
68   68   2    144.89862671444237       93.3832676304043         5.0                      # Si
69   69   2    154.8919338882072        93.3832676304043         5.0                      # Si
70   70   2    4.996365084583613        93.3832676304043         5.0                      # Si
71   71   2    14.98967225834848        93.3832676304043         5.0                      # Si
72   72   2    24.982402484849228       93.3832676304043         5.0                      # Si
73   73   2    34.9757096586141         93.3832676304043         5.0                      # Si
74   74   2    44.968439827781324       93.3832676304043         5.0                      # Si
75   75   2    54.96174700154619        93.3832676304043         5.0                      # Si
76   76   2    64.95447722804694        93.3832676304043         5.0                      # Si
77   77   2    74.94778440181182        93.3832676304043         5.0                      # Si
78   78   2    79.94414948639542        96.25659893681672        5.0                      # Si
79   79   2    89.93745666016028        96.25659893681672        5.0                      # Si
80   80   2    99.93018682932751        96.25659893681672        5.0                      # Si
81   81   2    109.92349400309239       96.25659893681672        5.0                      # Si
82   82   2    119.91622422959313       96.25659893681672        5.0                      # Si
83   83   2    129.909531403358         96.25659893681672        5.0                      # Si
84   84   2    139.90226157252522       96.25659893681672        5.0                      # Si
85   85   2    149.89556874629008       96.25659893681672        5.0                      # Si
86   86   2    159.88829897279084       96.25659893681672        5.0                      # Si
87   87   2    9.993307173764867        96.25659893681672        5.0                      # Si
88   88   2    19.986037342932093       96.25659893681672        5.0                      # Si
89   89   2    29.97934451669696        96.25659893681672        5.0                      # Si
90   90   2    39.97207474319771        96.25659893681672        5.0                      # Si
91   91   2    49.96538191696258        96.25659893681672        5.0                      # Si
92   92   2    59.958112086129795       96.25659893681672        5.0                      # Si
93   93   2    69.95141925989466        96.25659893681672        5.0                      # Si
94   94   2    89.93745666016028        102.0032616069751        5.0                      # Si
95   95   2    99.93018682932751        102.0032616069751        5.0                      # Si
96   96   2    109.92349400309239       102.0032616069751        5.0                      # Si
97   97   2    119.91622422959313       102.0032616069751        5.0                      # Si
98   98   2    129.909531403358         102.0032616069751        5.0                      # Si
99   99   2    139.90226157252522       102.0032616069751        5.0                      # Si
100  100  2    149.89556874629008       102.0032616069751        5.0                      # Si
101  101  2    159.88829897279084       102.0032616069751        5.0                      # Si
102  102  2    9.993307173764867        102.0032616069751        5.0                      # Si
103  103  2    19.986037342932093       102.0032616069751        5.0                      # Si
104  104  2    29.97934451669696        102.0032616069751        5.0                      # Si
105  105  2    39.97207474319771        102.0032616069751        5.0                      # Si
106  106  2    49.96538191696258        102.0032616069751        5.0                      # Si
107  107  2    59.958112086129795       102.0032616069751        5.0                      # Si
108  108  2    69.95141925989466        102.0032616069751        5.0                      # Si
109  109  2    79.94414948639542        102.0032616069751        5.0                      # Si
110  110  2    84.94051457097903        104.87659291338751       5.0                      # Si
111  111  2    94.9338217447439         104.87659291338751       5.0                      # Si
112  112  2    104.92655197124463       104.87659291338751       5.0                      # Si
113  113  2    114.91985914500951       104.87659291338751       5.0                      # Si
114  114  2    124.91258931417674       104.87659291338751       5.0                      # Si
115  115  2    134.90589648794162       104.87659291338751       5.0                      # Si
116  116  2    144.89862671444237       104.87659291338751       5.0                      # Si
117  117  2    154.8919338882072        104.87659291338751       5.0                      # Si
118  118  2    4.996365084583613        104.87659291338751       5.0                      # Si
119  119  2    14.98967225834848        104.87659291338751       5.0                      # Si
120  120  2    24.982402484849228       104.87659291338751       5.0                      # Si
121  121  2    34.9757096586141         104.87659291338751       5.0                      # Si
122  122  2    44.968439827781324       104.87659291338751       5.0                      # Si
123  123  2    54.96174700154619        104.87659291338751       5.0                      # Si
124  124  2    64.95447722804694        104.87659291338751       5.0                      # Si
125  125  2    74.94778440181182        104.87659291338751       5.0                      # Si
126  126  2    84.94051457097903        110.62325552621238       5.0                      # Si
127  127  2    94.9338217447439         110.62325552621238       5.0                      # Si
128  128  2    104.92655197124463       110.62325552621238       5.0                      # Si
129  129  2    114.91985914500951       110.62325552621238       5.0                      # Si
130  130  2    124.91258931417674       110.62325552621238       5.0                      # Si
131  131  2    134.90589648794162       110.62325552621238       5.0                      # Si
132  132  2    144.89862671444237       110.62325552621238       5.0                      # Si
133  133  2    154.8919338882072        110.62325552621238       5.0                      # Si
134  134  2    4.996365084583613        110.62325552621238       5.0                      # Si
135  135  2    14.98967225834848        110.62325552621238       5.0                      # Si
136  136  2    24.982402484849228       110.62325552621238       5.0                      # Si
137  137  2    34.9757096586141         110.62325552621238       5.0                      # Si
138  138  2    44.968439827781324       110.62325552621238       5.0                      # Si
139  139  2    54.96174700154619        110.62325552621238       5.0                      # Si
140  140  2    64.95447722804694        110.62325552621238       5.0                      # Si
141  141  2    74.94778440181182        110.62325552621238       5.0                      # Si
142  142  2    79.94414948639542        113.49658683262479       5.0                      # Si
143  143  2    89.93745666016028        113.49658683262479       5.0                      # Si
144  144  2    99.93018682932751        113.49658683262479       5.0                      # Si
145  145  2    109.92349400309239       113.49658683262479       5.0                      # Si
146  146  2    119.91622422959313       113.49658683262479       5.0                      # Si
147  147  2    129.909531403358         113.49658683262479       5.0                      # Si
148  148  2    139.90226157252522       113.49658683262479       5.0                      # Si
149  149  2    149.89556874629008       113.49658683262479       5.0                      # Si
150  150  2    159.88829897279084       113.49658683262479       5.0                      # Si
151  151  2    9.993307173764867        113.49658683262479       5.0                      # Si
152  152  2    19.986037342932093       113.49658683262479       5.0                      # Si
153  153  2    29.97934451669696        113.49658683262479       5.0                      # Si
154  154  2    39.97207474319771        113.49658683262479       5.0                      # Si
155  155  2    49.96538191696258        113.49658683262479       5.0                      # Si
156  156  2    59.958112086129795       113.49658683262479       5.0                      # Si
157  157  2    69.95141925989466        113.49658683262479       5.0                      # Si
158  158  2    89.93745666016028        119.24324944544964       5.0                      # Si
159  159  2    99.93018682932751        119.24324944544964       5.0                      # Si
160  160  2    109.92349400309239       119.24324944544964       5.0                      # Si
161  161  2    119.91622422959313       119.24324944544964       5.0                      # Si
162  162  2    129.909531403358         119.24324944544964       5.0                      # Si
163  163  2    139.90226157252522       119.24324944544964       5.0                      # Si
164  164  2    149.89556874629008       119.24324944544964       5.0                      # Si
165  165  2    159.88829897279084       119.24324944544964       5.0                      # Si
166  166  2    9.993307173764867        119.24324944544964       5.0                      # Si
167  167  2    19.986037342932093       119.24324944544964       5.0                      # Si
168  168  2    29.97934451669696        119.24324944544964       5.0                      # Si
169  169  2    39.97207474319771        119.24324944544964       5.0                      # Si
170  170  2    49.96538191696258        119.24324944544964       5.0                      # Si
171  171  2    59.958112086129795       119.24324944544964       5.0                      # Si
172  172  2    69.95141925989466        119.24324944544964       5.0                      # Si
173  173  2    79.94414948639542        119.24324944544964       5.0                      # Si
174  174  2    84.94051457097903        122.11658075186205       5.0                      # Si
175  175  2    94.9338217447439         122.11658075186205       5.0                      # Si
176  176  2    104.92655197124463       122.11658075186205       5.0                      # Si
177  177  2    114.91985914500951       122.11658075186205       5.0                      # Si
178  178  2    124.91258931417674       122.11658075186205       5.0                      # Si
179  179  2    134.90589648794162       122.11658075186205       5.0                      # Si
180  180  2    144.89862671444237       122.11658075186205       5.0                      # Si
181  181  2    154.8919338882072        122.11658075186205       5.0                      # Si
182  182  2    4.996365084583613        122.11658075186205       5.0                      # Si
183  183  2    14.98967225834848        122.11658075186205       5.0                      # Si
184  184  2    24.982402484849228       122.11658075186205       5.0                      # Si
185  185  2    34.9757096586141         122.11658075186205       5.0                      # Si
186  186  2    44.968439827781324       122.11658075186205       5.0                      # Si
187  187  2    54.96174700154619        122.11658075186205       5.0                      # Si
188  188  2    64.95447722804694        122.11658075186205       5.0                      # Si
189  189  2    74.94778440181182        122.11658075186205       5.0                      # Si
190  190  2    84.94051457097903        127.86324336468688       5.0                      # Si
191  191  2    94.9338217447439         127.86324336468688       5.0                      # Si
192  192  2    104.92655197124463       127.86324336468688       5.0                      # Si
193  193  2    114.91985914500951       127.86324336468688       5.0                      # Si
194  194  2    124.91258931417674       127.86324336468688       5.0                      # Si
195  195  2    134.90589648794162       127.86324336468688       5.0                      # Si
196  196  2    144.89862671444237       127.86324336468688       5.0                      # Si
197  197  2    154.8919338882072        127.86324336468688       5.0                      # Si
198  198  2    4.996365084583613        127.86324336468688       5.0                      # Si
199  199  2    14.98967225834848        127.86324336468688       5.0                      # Si
200  200  2    24.982402484849228       127.86324336468688       5.0                      # Si
201  201  2    34.9757096586141         127.86324336468688       5.0                      # Si
202  202  2    44.968439827781324       127.86324336468688       5.0                      # Si
203  203  2    54.96174700154619        127.86324336468688       5.0                      # Si
204  204  2    64.95447722804694        127.86324336468688       5.0                      # Si
205  205  2    74.94778440181182        127.86324336468688       5.0                      # Si
206  206  2    79.94414948639542        130.73657472843286       5.0                      # Si
207  207  2    89.93745666016028        130.73657472843286       5.0                      # Si
208  208  2    99.93018682932751        130.73657472843286       5.0                      # Si
209  209  2    109.92349400309239       130.73657472843286       5.0                      # Si
210  210  2    119.91622422959313       130.73657472843286       5.0                      # Si
211  211  2    129.909531403358         130.73657472843286       5.0                      # Si
212  212  2    139.90226157252522       130.73657472843286       5.0                      # Si
213  213  2    149.89556874629008       130.73657472843286       5.0                      # Si
214  214  2    159.88829897279084       130.73657472843286       5.0                      # Si
215  215  2    9.993307173764867        130.73657472843286       5.0                      # Si
216  216  2    19.986037342932093       130.73657472843286       5.0                      # Si
217  217  2    29.97934451669696        130.73657472843286       5.0                      # Si
218  218  2    39.97207474319771        130.73657472843286       5.0                      # Si
219  219  2    49.96538191696258        130.73657472843286       5.0                      # Si
220  220  2    59.958112086129795       130.73657472843286       5.0                      # Si
221  221  2    69.95141925989466        130.73657472843286       5.0                      # Si
222  222  2    89.93745666016028        136.48323734125768       5.0                      # Si
223  223  2    99.93018682932751        136.48323734125768       5.0                      # Si
224  224  2    109.92349400309239       136.48323734125768       5.0                      # Si
225  225  2    119.91622422959313       136.48323734125768       5.0                      # Si
226  226  2    129.909531403358         136.48323734125768       5.0                      # Si
227  227  2    139.90226157252522       136.48323734125768       5.0                      # Si
228  228  2    149.89556874629008       136.48323734125768       5.0                      # Si
229  229  2    159.88829897279084       136.48323734125768       5.0                      # Si
230  230  2    9.993307173764867        136.48323734125768       5.0                      # Si
231  231  2    19.986037342932093       136.48323734125768       5.0                      # Si
232  232  2    29.97934451669696        136.48323734125768       5.0                      # Si
233  233  2    39.97207474319771        136.48323734125768       5.0                      # Si
234  234  2    49.96538191696258        136.48323734125768       5.0                      # Si
235  235  2    59.958112086129795       136.48323734125768       5.0                      # Si
236  236  2    69.95141925989466        136.48323734125768       5.0                      # Si
237  237  2    79.94414948639542        136.48323734125768       5.0                      # Si
238  238  2    84.94051457097903        1.4366656532062112       5.0                      # Si
239  239  2    94.9338217447439         1.4366656532062112       5.0                      # Si
240  240  2    104.92655197124463       1.4366656532062112       5.0                      # Si
241  241  2    114.91985914500951       1.4366656532062112       5.0                      # Si
242  242  2    124.91258931417674       1.4366656532062112       5.0                      # Si
243  243  2    134.90589648794162       1.4366656532062112       5.0                      # Si
244  244  2    144.89862671444237       1.4366656532062112       5.0                      # Si
245  245  2    154.8919338882072        1.4366656532062112       5.0                      # Si
246  246  2    4.996365084583613        1.4366656532062112       5.0                      # Si
247  247  2    14.98967225834848        1.4366656532062112       5.0                      # Si
248  248  2    24.982402484849228       1.4366656532062112       5.0                      # Si
249  249  2    34.9757096586141         1.4366656532062112       5.0                      # Si
250  250  2    44.968439827781324       1.4366656532062112       5.0                      # Si
251  251  2    54.96174700154619        1.4366656532062112       5.0                      # Si
252  252  2    64.95447722804694        1.4366656532062112       5.0                      # Si
253  253  2    74.94778440181182        1.4366656532062112       5.0                      # Si
254  254  2    84.94051457097903        7.183328266031055        5.0                      # Si
255  255  2    94.9338217447439         7.183328266031055        5.0                      # Si
256  256  2    104.92655197124463       7.183328266031055        5.0                      # Si
257  257  2    114.91985914500951       7.183328266031055        5.0                      # Si
258  258  2    124.91258931417674       7.183328266031055        5.0                      # Si
259  259  2    134.90589648794162       7.183328266031055        5.0                      # Si
260  260  2    144.89862671444237       7.183328266031055        5.0                      # Si
261  261  2    154.8919338882072        7.183328266031055        5.0                      # Si
262  262  2    4.996365084583613        7.183328266031055        5.0                      # Si
263  263  2    14.98967225834848        7.183328266031055        5.0                      # Si
264  264  2    24.982402484849228       7.183328266031055        5.0                      # Si
265  265  2    34.9757096586141         7.183328266031055        5.0                      # Si
266  266  2    44.968439827781324       7.183328266031055        5.0                      # Si
267  267  2    54.96174700154619        7.183328266031055        5.0                      # Si
268  268  2    64.95447722804694        7.183328266031055        5.0                      # Si
269  269  2    74.94778440181182        7.183328266031055        5.0                      # Si
270  270  2    79.94414948639542        10.056659572443479       5.0                      # Si
271  271  2    89.93745666016028        10.056659572443479       5.0                      # Si
272  272  2    99.93018682932751        10.056659572443479       5.0                      # Si
273  273  2    109.92349400309239       10.056659572443479       5.0                      # Si
274  274  2    119.91622422959313       10.056659572443479       5.0                      # Si
275  275  2    129.909531403358         10.056659572443479       5.0                      # Si
276  276  2    139.90226157252522       10.056659572443479       5.0                      # Si
277  277  2    149.89556874629008       10.056659572443479       5.0                      # Si
278  278  2    159.88829897279084       10.056659572443479       5.0                      # Si
279  279  2    9.993307173764867        10.056659572443479       5.0                      # Si
280  280  2    19.986037342932093       10.056659572443479       5.0                      # Si
281  281  2    29.97934451669696        10.056659572443479       5.0                      # Si
282  282  2    39.97207474319771        10.056659572443479       5.0                      # Si
283  283  2    49.96538191696258        10.056659572443479       5.0                      # Si
284  284  2    59.958112086129795       10.056659572443479       5.0                      # Si
285  285  2    69.95141925989466        10.056659572443479       5.0                      # Si
286  286  2    89.93745666016028        15.803322242601848       5.0                      # Si
287  287  2    99.93018682932751        15.803322242601848       5.0                      # Si
288  288  2    109.92349400309239       15.803322242601848       5.0                      # Si
289  289  2    119.91622422959313       15.803322242601848       5.0                      # Si
290  290  2    129.909531403358         15.803322242601848       5.0                      # Si
291  291  2    139.90226157252522       15.803322242601848       5.0                      # Si
292  292  2    149.89556874629008       15.803322242601848       5.0                      # Si
293  293  2    159.88829897279084       15.803322242601848       5.0                      # Si
294  294  2    9.993307173764867        15.803322242601848       5.0                      # Si
295  295  2    19.986037342932093       15.803322242601848       5.0                      # Si
296  296  2    29.97934451669696        15.803322242601848       5.0                      # Si
297  297  2    39.97207474319771        15.803322242601848       5.0                      # Si
298  298  2    49.96538191696258        15.803322242601848       5.0                      # Si
299  299  2    59.958112086129795       15.803322242601848       5.0                      # Si
300  300  2    69.95141925989466        15.803322242601848       5.0                      # Si
301  301  2    79.94414948639542        15.803322242601848       5.0                      # Si
302  302  2    84.94051457097903        18.676653549014272       5.0                      # Si
303  303  2    94.9338217447439         18.676653549014272       5.0                      # Si
304  304  2    104.92655197124463       18.676653549014272       5.0                      # Si
305  305  2    114.91985914500951       18.676653549014272       5.0                      # Si
306  306  2    124.91258931417674       18.676653549014272       5.0                      # Si
307  307  2    134.90589648794162       18.676653549014272       5.0                      # Si
308  308  2    144.89862671444237       18.676653549014272       5.0                      # Si
309  309  2    154.8919338882072        18.676653549014272       5.0                      # Si
310  310  2    4.996365084583613        18.676653549014272       5.0                      # Si
311  311  2    14.98967225834848        18.676653549014272       5.0                      # Si