DATA FILE Produced from netmc results (cf David Morley)
3012 atoms
10040 bonds
0 angles
0 dihedrals
0 impropers
2 atom types
0 bond types
2 bond types
0 angle types
0 dihedral types
0 improper types
0.00000 159.8883739650418 xlo xhi
0.00000 137.9199029944639 ylo yhi
0.0000 200.0000 zlo zhi

# Pair Coeffs
#
# 1  O
# 2  Si

# Bond Coeffs
# 
# 1  O-O
# 2  Si-O
# 3  O-O rep
# 4  Si-Si rep

 Masses

1 28.10000 # O 
2 32.01000 # Si

 Atoms # molecular

1    1    1    104.92655197124463       76.14327979192977        8.040569334518267        # O
2    2    1    114.91985914500951       76.14327979192977        8.040569334518267        # O
3    3    1    124.91258931417674       76.14327979192977        8.040569334518267        # O
4    4    1    134.90589648794162       76.14327979192977        8.040569334518267        # O
5    5    1    144.89862671444237       76.14327979192977        8.040569334518267        # O
6    6    1    154.8919338882072        76.14327979192977        8.040569334518267        # O
7    7    1    4.996365084583613        76.14327979192977        8.040569334518267        # O
8    8    1    14.98967225834848        76.14327979192977        8.040569334518267        # O
9    9    1    24.982402484849228       76.14327979192977        8.040569334518267        # O
10   10   1    34.9757096586141         76.14327979192977        8.040569334518267        # O
11   11   1    44.968439827781324       76.14327979192977        8.040569334518267        # O
12   12   1    54.96174700154619        76.14327979192977        8.040569334518267        # O
13   13   1    64.95447722804694        76.14327979192977        8.040569334518267        # O
14   14   1    74.94778440181182        76.14327979192977        8.040569334518267        # O
15   15   1    79.94414948639542        79.0166110983422         8.040569334518267        # O
16   16   1    99.93018682932751        79.0166110983422         8.040569334518267        # O
17   17   1    109.92349400309239       79.0166110983422         8.040569334518267        # O
18   18   1    119.91622422959313       79.0166110983422         8.040569334518267        # O
19   19   1    129.909531403358         79.0166110983422         8.040569334518267        # O
20   20   1    139.90226157252522       79.0166110983422         8.040569334518267        # O
21   21   1    149.89556874629008       79.0166110983422         8.040569334518267        # O
22   22   1    159.88829897279084       79.0166110983422         8.040569334518267        # O
23   23   1    9.993307173764867        79.0166110983422         8.040569334518267        # O
24   24   1    19.986037342932093       79.0166110983422         8.040569334518267        # O
25   25   1    29.97934451669696        79.0166110983422         8.040569334518267        # O
26   26   1    39.97207474319771        79.0166110983422         8.040569334518267        # O
27   27   1    49.96538191696258        79.0166110983422         8.040569334518267        # O
28   28   1    59.958112086129795       79.0166110983422         8.040569334518267        # O
29   29   1    69.95141925989466        79.0166110983422         8.040569334518267        # O
30   30   1    89.93745666016028        84.76327371116705        8.040569334518267        # O
31   31   1    99.93018682932751        84.76327371116705        8.040569334518267        # O
32   32   1    109.92349400309239       84.76327371116705        8.040569334518267        # O
33   33   1    119.91622422959313       84.76327371116705        8.040569334518267        # O
34   34   1    129.909531403358         84.76327371116705        8.040569334518267        # O
35   35   1    139.90226157252522       84.76327371116705        8.040569334518267        # O
36   36   1    149.89556874629008       84.76327371116705        8.040569334518267        # O
37   37   1    159.88829897279084       84.76327371116705        8.040569334518267        # O
38   38   1    9.993307173764867        84.76327371116705        8.040569334518267        # O
39   39   1    19.986037342932093       84.76327371116705        8.040569334518267        # O
40   40   1    29.97934451669696        84.76327371116705        8.040569334518267        # O
41   41   1    39.97207474319771        84.76327371116705        8.040569334518267        # O
42   42   1    49.96538191696258        84.76327371116705        8.040569334518267        # O
43   43   1    59.958112086129795       84.76327371116705        8.040569334518267        # O
44   44   1    69.95141925989466        84.76327371116705        8.040569334518267        # O
45   45   1    79.94414948639542        84.76327371116705        8.040569334518267        # O
46   46   1    84.94051457097903        87.63660501757946        8.040569334518267        # O
47   47   1    94.9338217447439         87.63660501757946        8.040569334518267        # O
48   48   1    104.92655197124463       87.63660501757946        8.040569334518267        # O
49   49   1    114.91985914500951       87.63660501757946        8.040569334518267        # O
50   50   1    124.91258931417674       87.63660501757946        8.040569334518267        # O
51   51   1    134.90589648794162       87.63660501757946        8.040569334518267        # O
52   52   1    144.89862671444237       87.63660501757946        8.040569334518267        # O
53   53   1    154.8919338882072        87.63660501757946        8.040569334518267        # O
54   54   1    4.996365084583613        87.63660501757946        8.040569334518267        # O
55   55   1    14.98967225834848        87.63660501757946        8.040569334518267        # O
56   56   1    24.982402484849228       87.63660501757946        8.040569334518267        # O
57   57   1    34.9757096586141         87.63660501757946        8.040569334518267        # O
58   58   1    44.968439827781324       87.63660501757946        8.040569334518267        # O
59   59   1    54.96174700154619        87.63660501757946        8.040569334518267        # O
60   60   1    64.95447722804694        87.63660501757946        8.040569334518267        # O
61   61   1    74.94778440181182        87.63660501757946        8.040569334518267        # O
62   62   1    84.94051457097903        93.3832676304043         8.040569334518267        # O
63   63   1    94.9338217447439         93.3832676304043         8.040569334518267        # O
64   64   1    104.92655197124463       93.3832676304043         8.040569334518267        # O
65   65   1    114.91985914500951       93.3832676304043         8.040569334518267        # O
66   66   1    124.91258931417674       93.3832676304043         8.040569334518267        # O
67   67   1    134.90589648794162       93.3832676304043         8.040569334518267        # O
68   68   1    144.89862671444237       93.3832676304043         8.040569334518267        # O
69   69   1    154.8919338882072        93.3832676304043         8.040569334518267        # O
70   70   1    4.996365084583613        93.3832676304043         8.040569334518267        # O
71   71   1    14.98967225834848        93.3832676304043         8.040569334518267        # O
72   72   1    24.982402484849228       93.3832676304043         8.040569334518267        # O
73   73   1    34.9757096586141         93.3832676304043         8.040569334518267        # O
74   74   1    44.968439827781324       93.3832676304043         8.040569334518267        # O
75   75   1    54.96174700154619        93.3832676304043         8.040569334518267        # O
76   76   1    64.95447722804694        93.3832676304043         8.040569334518267        # O
77   77   1    74.94778440181182        93.3832676304043         8.040569334518267        # O
78   78   1    79.94414948639542        96.25659893681672        8.040569334518267        # O
79   79   1    89.93745666016028        96.25659893681672        8.040569334518267        # O
80   80   1    99.93018682932751        96.25659893681672        8.040569334518267        # O
81   81   1    109.92349400309239       96.25659893681672        8.040569334518267        # O
82   82   1    119.91622422959313       96.25659893681672        8.040569334518267        # O
83   83   1    129.909531403358         96.25659893681672        8.040569334518267        # O
84   84   1    139.90226157252522       96.25659893681672        8.040569334518267        # O
85   85   1    149.89556874629008       96.25659893681672        8.040569334518267        # O
86   86   1    159.88829897279084       96.25659893681672        8.040569334518267        # O
87   87   1    9.993307173764867        96.25659893681672        8.040569334518267        # O
88   88   1    19.986037342932093       96.25659893681672        8.040569334518267        # O
89   89   1    29.97934451669696        96.25659893681672        8.040569334518267        # O
90   90   1    39.97207474319771        96.25659893681672        8.040569334518267        # O
91   91   1    49.96538191696258        96.25659893681672        8.040569334518267        # O
92   92   1    59.958112086129795       96.25659893681672        8.040569334518267        # O
93   93   1    69.95141925989466        96.25659893681672        8.040569334518267        # O
94   94   1    89.93745666016028        102.0032616069751        8.040569334518267        # O
95   95   1    99.93018682932751        102.0032616069751        8.040569334518267        # O
96   96   1    109.92349400309239       102.0032616069751        8.040569334518267        # O
97   97   1    119.91622422959313       102.0032616069751        8.040569334518267        # O
98   98   1    129.909531403358         102.0032616069751        8.040569334518267        # O
99   99   1    139.90226157252522       102.0032616069751        8.040569334518267        # O
100  100  1    149.89556874629008       102.0032616069751        8.040569334518267        # O
101  101  1    159.88829897279084       102.0032616069751        8.040569334518267        # O
102  102  1    9.993307173764867        102.0032616069751        8.040569334518267        # O
103  103  1    19.986037342932093       102.0032616069751        8.040569334518267        # O
104  104  1    29.97934451669696        102.0032616069751        8.040569334518267        # O
105  105  1    39.97207474319771        102.0032616069751        8.040569334518267        # O
106  106  1    49.96538191696258        102.0032616069751        8.040569334518267        # O
107  107  1    59.958112086129795       102.0032616069751        8.040569334518267        # O
108  108  1    69.95141925989466        102.0032616069751        8.040569334518267        # O
109  109  1    79.94414948639542        102.0032616069751        8.040569334518267        # O
110  110  1    84.94051457097903        104.87659291338751       8.040569334518267        # O
111  111  1    94.9338217447439         104.87659291338751       8.040569334518267        # O
112  112  1    104.92655197124463       104.87659291338751       8.040569334518267        # O
113  113  1    114.91985914500951       104.87659291338751       8.040569334518267        # O
114  114  1    124.91258931417674       104.87659291338751       8.040569334518267        # O
115  115  1    134.90589648794162       104.87659291338751       8.040569334518267        # O
116  116  1    144.89862671444237       104.87659291338751       8.040569334518267        # O
117  117  1    154.8919338882072        104.87659291338751       8.040569334518267        # O
118  118  1    4.996365084583613        104.87659291338751       8.040569334518267        # O
119  119  1    14.98967225834848        104.87659291338751       8.040569334518267        # O
120  120  1    24.982402484849228       104.87659291338751       8.040569334518267        # O
121  121  1    34.9757096586141         104.87659291338751       8.040569334518267        # O
122  122  1    44.968439827781324       104.87659291338751       8.040569334518267        # O
123  123  1    54.96174700154619        104.87659291338751       8.040569334518267        # O
124  124  1    64.95447722804694        104.87659291338751       8.040569334518267        # O
125  125  1    74.94778440181182        104.87659291338751       8.040569334518267        # O
126  126  1    84.94051457097903        110.62325552621238       8.040569334518267        # O
127  127  1    94.9338217447439         110.62325552621238       8.040569334518267        # O
128  128  1    104.92655197124463       110.62325552621238       8.040569334518267        # O
129  129  1    114.91985914500951       110.62325552621238       8.040569334518267        # O
130  130  1    124.91258931417674       110.62325552621238       8.040569334518267        # O
131  131  1    134.90589648794162       110.62325552621238       8.040569334518267        # O
132  132  1    144.89862671444237       110.62325552621238       8.040569334518267        # O
133  133  1    154.8919338882072        110.62325552621238       8.040569334518267        # O
134  134  1    4.996365084583613        110.62325552621238       8.040569334518267        # O
135  135  1    14.98967225834848        110.62325552621238       8.040569334518267        # O
136  136  1    24.982402484849228       110.62325552621238       8.040569334518267        # O
137  137  1    34.9757096586141         110.62325552621238       8.040569334518267        # O
138  138  1    44.968439827781324       110.62325552621238       8.040569334518267        # O
139  139  1    54.96174700154619        110.62325552621238       8.040569334518267        # O
140  140  1    64.95447722804694        110.62325552621238       8.040569334518267        # O
141  141  1    74.94778440181182        110.62325552621238       8.040569334518267        # O
142  142  1    79.94414948639542        113.49658683262479       8.040569334518267        # O
143  143  1    89.93745666016028        113.49658683262479       8.040569334518267        # O
144  144  1    99.93018682932751        113.49658683262479       8.040569334518267        # O
145  145  1    109.92349400309239       113.49658683262479       8.040569334518267        # O
146  146  1    119.91622422959313       113.49658683262479       8.040569334518267        # O
147  147  1    129.909531403358         113.49658683262479       8.040569334518267        # O
148  148  1    139.90226157252522       113.49658683262479       8.040569334518267        # O
149  149  1    149.89556874629008       113.49658683262479       8.040569334518267        # O
150  150  1    159.88829897279084       113.49658683262479       8.040569334518267        # O
151  151  1    9.993307173764867        113.49658683262479       8.040569334518267        # O
152  152  1    19.986037342932093       113.49658683262479       8.040569334518267        # O
153  153  1    29.97934451669696        113.49658683262479       8.040569334518267        # O
154  154  1    39.97207474319771        113.49658683262479       8.040569334518267        # O
155  155  1    49.96538191696258        113.49658683262479       8.040569334518267        # O
156  156  1    59.958112086129795       113.49658683262479       8.040569334518267        # O
157  157  1    69.95141925989466        113.49658683262479       8.040569334518267        # O
158  158  1    89.93745666016028        119.24324944544964       8.040569334518267        # O
159  159  1    99.93018682932751        119.24324944544964       8.040569334518267        # O
160  160  1    109.92349400309239       119.24324944544964       8.040569334518267        # O
161  161  1    119.91622422959313       119.24324944544964       8.040569334518267        # O
162  162  1    129.909531403358         119.24324944544964       8.040569334518267        # O
163  163  1    139.90226157252522       119.24324944544964       8.040569334518267        # O
164  164  1    149.89556874629008       119.24324944544964       8.040569334518267        # O
165  165  1    159.88829897279084       119.24324944544964       8.040569334518267        # O
166  166  1    9.993307173764867        119.24324944544964       8.040569334518267        # O
167  167  1    19.986037342932093       119.24324944544964       8.040569334518267        # O
168  168  1    29.97934451669696        119.24324944544964       8.040569334518267        # O
169  169  1    39.97207474319771        119.24324944544964       8.040569334518267        # O
170  170  1    49.96538191696258        119.24324944544964       8.040569334518267        # O
171  171  1    59.958112086129795       119.24324944544964       8.040569334518267        # O
172  172  1    69.95141925989466        119.24324944544964       8.040569334518267        # O
173  173  1    79.94414948639542        119.24324944544964       8.040569334518267        # O
174  174  1    84.94051457097903        122.11658075186205       8.040569334518267        # O
175  175  1    94.9338217447439         122.11658075186205       8.040569334518267        # O
176  176  1    104.92655197124463       122.11658075186205       8.040569334518267        # O
177  177  1    114.91985914500951       122.11658075186205       8.040569334518267        # O
178  178  1    124.91258931417674       122.11658075186205       8.040569334518267        # O
179  179  1    134.90589648794162       122.11658075186205       8.040569334518267        # O
180  180  1    144.89862671444237       122.11658075186205       8.040569334518267        # O
181  181  1    154.8919338882072        122.11658075186205       8.040569334518267        # O
182  182  1    4.996365084583613        122.11658075186205       8.040569334518267        # O
183  183  1    14.98967225834848        122.11658075186205       8.040569334518267        # O
184  184  1    24.982402484849228       122.11658075186205       8.040569334518267        # O
185  185  1    34.9757096586141         122.11658075186205       8.040569334518267        # O
186  186  1    44.968439827781324       122.11658075186205       8.040569334518267        # O
187  187  1    54.96174700154619        122.11658075186205       8.040569334518267        # O
188  188  1    64.95447722804694        122.11658075186205       8.040569334518267        # O
189  189  1    74.94778440181182        122.11658075186205       8.040569334518267        # O
190  190  1    84.94051457097903        127.86324336468688       8.040569334518267        # O
191  191  1    94.9338217447439         127.86324336468688       8.040569334518267        # O
192  192  1    104.92655197124463       127.86324336468688       8.040569334518267        # O
193  193  1    114.91985914500951       127.86324336468688       8.040569334518267        # O
194  194  1    124.91258931417674       127.86324336468688       8.040569334518267        # O
195  195  1    134.90589648794162       127.86324336468688       8.040569334518267        # O
196  196  1    144.89862671444237       127.86324336468688       8.040569334518267        # O
197  197  1    154.8919338882072        127.86324336468688       8.040569334518267        # O
198  198  1    4.996365084583613        127.86324336468688       8.040569334518267        # O
199  199  1    14.98967225834848        127.86324336468688       8.040569334518267        # O
200  200  1    24.982402484849228       127.86324336468688       8.040569334518267        # O
201  201  1    34.9757096586141         127.86324336468688       8.040569334518267        # O
202  202  1    44.968439827781324       127.86324336468688       8.040569334518267        # O
203  203  1    54.96174700154619        127.86324336468688       8.040569334518267        # O
204  204  1    64.95447722804694        127.86324336468688       8.040569334518267        # O
205  205  1    74.94778440181182        127.86324336468688       8.040569334518267        # O
206  206  1    79.94414948639542        130.73657472843286       8.040569334518267        # O
207  207  1    89.93745666016028        130.73657472843286       8.040569334518267        # O
208  208  1    99.93018682932751        130.73657472843286       8.040569334518267        # O
209  209  1    109.92349400309239       130.73657472843286       8.040569334518267        # O
210  210  1    119.91622422959313       130.73657472843286       8.040569334518267        # O
211  211  1    129.909531403358         130.73657472843286       8.040569334518267        # O
212  212  1    139.90226157252522       130.73657472843286       8.040569334518267        # O
213  213  1    149.89556874629008       130.73657472843286       8.040569334518267        # O
214  214  1    159.88829897279084       130.73657472843286       8.040569334518267        # O
215  215  1    9.993307173764867        130.73657472843286       8.040569334518267        # O
216  216  1    19.986037342932093       130.73657472843286       8.040569334518267        # O
217  217  1    29.97934451669696        130.73657472843286       8.040569334518267        # O
218  218  1    39.97207474319771        130.73657472843286       8.040569334518267        # O
219  219  1    49.96538191696258        130.73657472843286       8.040569334518267        # O
220  220  1    59.958112086129795       130.73657472843286       8.040569334518267        # O
221  221  1    69.95141925989466        130.73657472843286       8.040569334518267        # O
222  222  1    89.93745666016028        136.48323734125768       8.040569334518267        # O
223  223  1    99.93018682932751        136.48323734125768       8.040569334518267        # O
224  224  1    109.92349400309239       136.48323734125768       8.040569334518267        # O
225  225  1    119.91622422959313       136.48323734125768       8.040569334518267        # O
226  226  1    129.909531403358         136.48323734125768       8.040569334518267        # O
227  227  1    139.90226157252522       136.48323734125768       8.040569334518267        # O
228  228  1    149.89556874629008       136.48323734125768       8.040569334518267        # O
229  229  1    159.88829897279084       136.48323734125768       8.040569334518267        # O
230  230  1    9.993307173764867        136.48323734125768       8.040569334518267        # O
231  231  1    19.986037342932093       136.48323734125768       8.040569334518267        # O
232  232  1    29.97934451669696        136.48323734125768       8.040569334518267        # O
233  233  1    39.97207474319771        136.48323734125768       8.040569334518267        # O
234  234  1    49.96538191696258        136.48323734125768       8.040569334518267        # O
235  235  1    59.958112086129795       136.48323734125768       8.040569334518267        # O
236  236  1    69.95141925989466        136.48323734125768       8.040569334518267        # O
237  237  1    79.94414948639542        136.48323734125768       8.040569334518267        # O
238  238  1    84.94051457097903        1.4366656532062112       8.040569334518267        # O
239  239  1    94.9338217447439         1.4366656532062112       8.040569334518267        # O
240  240  1    104.92655197124463       1.4366656532062112       8.040569334518267        # O
241  241  1    114.91985914500951       1.4366656532062112       8.040569334518267        # O
242  242  1    124.91258931417674       1.4366656532062112       8.040569334518267        # O
243  243  1    134.90589648794162       1.4366656532062112       8.040569334518267        # O
244  244  1    144.89862671444237       1.4366656532062112       8.040569334518267        # O
245  245  1    154.8919338882072        1.4366656532062112       8.040569334518267        # O
246  246  1    4.996365084583613        1.4366656532062112       8.040569334518267        # O
247  247  1    14.98967225834848        1.4366656532062112       8.040569334518267        # O
248  248  1    24.982402484849228       1.4366656532062112       8.040569334518267        # O
249  249  1    34.9757096586141         1.4366656532062112       8.040569334518267        # O
250  250  1    44.968439827781324       1.4366656532062112       8.040569334518267        # O
251  251  1    54.96174700154619        1.4366656532062112       8.040569334518267        # O
252  252  1    64.95447722804694        1.4366656532062112       8.040569334518267        # O
253  253  1    74.94778440181182        1.4366656532062112       8.040569334518267        # O
254  254  1    84.94051457097903        7.183328266031055        8.040569334518267        # O
255  255  1    94.9338217447439         7.183328266031055        8.040569334518267        # O
256  256  1    104.92655197124463       7.183328266031055        8.040569334518267        # O
257  257  1    114.91985914500951       7.183328266031055        8.040569334518267        # O
258  258  1    124.91258931417674       7.183328266031055        8.040569334518267        # O
259  259  1    134.90589648794162       7.183328266031055        8.040569334518267        # O
260  260  1    144.89862671444237       7.183328266031055        8.040569334518267        # O
261  261  1    154.8919338882072        7.183328266031055        8.040569334518267        # O
262  262  1    4.996365084583613        7.183328266031055        8.040569334518267        # O
263  263  1    14.98967225834848        7.183328266031055        8.040569334518267        # O
264  264  1    24.982402484849228       7.183328266031055        8.040569334518267        # O
265  265  1    34.9757096586141         7.183328266031055        8.040569334518267        # O
266  266  1    44.968439827781324       7.183328266031055        8.040569334518267        # O
267  267  1    54.96174700154619        7.183328266031055        8.040569334518267        # O
268  268  1    64.95447722804694        7.183328266031055        8.040569334518267        # O
269  269  1    74.94778440181182        7.183328266031055        8.040569334518267        # O
270  270  1    79.94414948639542        10.056659572443479       8.040569334518267        # O
271  271  1    89.93745666016028        10.056659572443479       8.040569334518267        # O
272  272  1    99.93018682932751        10.056659572443479       8.040569334518267        # O
273  273  1    109.92349400309239       10.056659572443479       8.040569334518267        # O
274  274  1    119.91622422959313       10.056659572443479       8.040569334518267        # O
275  275  1    129.909531403358         10.056659572443479       8.040569334518267        # O
276  276  1    139.90226157252522       10.056659572443479       8.040569334518267        # O
277  277  1    149.89556874629008       10.056659572443479       8.040569334518267        # O
278  278  1    159.88829897279084       10.056659572443479       8.040569334518267        # O
279  279  1    9.993307173764867        10.056659572443479       8.040569334518267        # O
280  280  1    19.986037342932093       10.056659572443479       8.040569334518267        # O
281  281  1    29.97934451669696        10.056659572443479       8.040569334518267        # O
282  282  1    39.97207474319771        10.056659572443479       8.040569334518267        # O
283  283  1    49.96538191696258        10.056659572443479       8.040569334518267        # O
284  284  1    59.958112086129795       10.056659572443479       8.040569334518267        # O
285  285  1    69.95141925989466        10.056659572443479       8.040569334518267        # O
286  286  1    89.93745666016028        15.803322242601848       8.040569334518267        # O
287  287  1    99.93018682932751        15.803322242601848       8.040569334518267        # O
288  288  1    109.92349400309239       15.803322242601848       8.040569334518267        # O
289  289  1    119.91622422959313       15.803322242601848       8.040569334518267        # O
290  290  1    129.909531403358         15.803322242601848       8.040569334518267        # O
291  291  1    139.90226157252522       15.803322242601848       8.040569334518267        # O
292  292  1    149.89556874629008       15.803322242601848       8.040569334518267        # O
293  293  1    159.88829897279084       15.803322242601848       8.040569334518267        # O
294  294  1    9.993307173764867        15.803322242601848       8.040569334518267        # O
295  295  1    19.986037342932093       15.803322242601848       8.040569334518267        # O
296  296  1    29.97934451669696        15.803322242601848       8.040569334518267        # O
297  297  1    39.97207474319771        15.803322242601848       8.040569334518267        # O
298  298  1    49.96538191696258        15.803322242601848       8.040569334518267        # O
299  299  1    59.958112086129795       15.803322242601848       8.040569334518267        # O
300  300  1    69.95141925989466        15.803322242601848       8.040569334518267        # O
301  301  1    79.94414948639542        15.803322242601848       8.040569334518267        # O
302  302  1    84.94051457097903        18.676653549014272       8.040569334518267        # O
303  303  1    94.9338217447439         18.676653549014272       8.040569334518267        # O
304  304  1    104.92655197124463       18.676653549014272       8.040569334518267        # O
305  305  1    114.91985914500951       18.676653549014272       8.040569334518267        # O
306  306  1    124.91258931417674       18.676653549014272       8.040569334518267        # O
307  307  1    134.90589648794162       18.676653549014272       8.040569334518267        # O
308  308  1    144.89862671444237       18.676653549014272       8.040569334518267        # O
309  309  1    154.8919338882072        18.676653549014272       8.040569334518267        # O
310  310  1    4.996365084583613        18.676653549014272       8.040569334518267        # O
311  311  1    14.98967225834848        18.676653549014272       8.040569334518267        # O
312  312  1    24.982402484849228       18.676653549014272       8.040569334518267        # O
313  313  1    34.9757096586141         18.676653549014272       8.040569334518267        # O
314  314  1    44.968439827781324       18.676653549014272       8.040569334518267        # O