DATA FILE Produced from netmc results (cf David Morley)
8016 atoms
26720 bonds
0 angles
0 dihedrals
0 impropers
2 atom types
0 bond types
2 bond types
0 angle types
0 dihedral types
0 improper types
0.00000 256.6595947505626 xlo xhi
0.00000 222.2737291631666 ylo yhi
0.0000 200.0000 zlo zhi

# Pair Coeffs
#
# 1  O
# 2  Si

# Bond Coeffs
# 
# 1  O-O
# 2  Si-O
# 3  O-O rep
# 4  Si-Si rep

 Masses

1 28.10000 # O 
2 32.01000 # Si

 Atoms # molecular

1    1    2    162.87990900021296       118.26102256758222       5.0                      # Si
2    2    2    162.87990900021296       118.26102256758222       11.081138669036534       # Si
3    3    2    172.75171223825194       118.26102256758222       5.0                      # Si
4    4    2    172.75171223825194       118.26102256758222       11.081138669036534       # Si
5    5    2    182.62294554365207       118.26102256758222       5.0                      # Si
6    6    2    182.62294554365207       118.26102256758222       11.081138669036534       # Si
7    7    2    192.49474878169107       118.26102256758222       5.0                      # Si
8    8    2    192.49474878169107       118.26102256758222       11.081138669036534       # Si
9    9    2    202.36598208709117       118.26102256758222       5.0                      # Si
10   10   2    202.36598208709117       118.26102256758222       11.081138669036534       # Si
11   11   2    212.23778532513015       118.26102256758222       5.0                      # Si
12   12   2    212.23778532513015       118.26102256758222       11.081138669036534       # Si
13   13   2    222.1090186305303        118.26102256758222       5.0                      # Si
14   14   2    222.1090186305303        118.26102256758222       11.081138669036534       # Si
15   15   2    231.98082186856928       118.26102256758222       5.0                      # Si
16   16   2    231.98082186856928       118.26102256758222       11.081138669036534       # Si
17   17   2    241.85205517396938       118.26102256758222       5.0                      # Si
18   18   2    241.85205517396938       118.26102256758222       11.081138669036534       # Si
19   19   2    251.72385841200838       118.26102256758222       5.0                      # Si
20   20   2    251.72385841200838       118.26102256758222       11.081138669036534       # Si
21   21   2    4.935616652700058        118.26102256758222       5.0                      # Si
22   22   2    4.935616652700058        118.26102256758222       11.081138669036534       # Si
23   23   2    14.807419890739054       118.26102256758222       5.0                      # Si
24   24   2    14.807419890739054       118.26102256758222       11.081138669036534       # Si
25   25   2    24.67865319613917        118.26102256758222       5.0                      # Si
26   26   2    24.67865319613917        118.26102256758222       11.081138669036534       # Si
27   27   2    34.550456434178166       118.26102256758222       5.0                      # Si
28   28   2    34.550456434178166       118.26102256758222       11.081138669036534       # Si
29   29   2    44.42168973957828        118.26102256758222       5.0                      # Si
30   30   2    44.42168973957828        118.26102256758222       11.081138669036534       # Si
31   31   2    54.293492977617284       118.26102256758222       5.0                      # Si
32   32   2    54.293492977617284       118.26102256758222       11.081138669036534       # Si
33   33   2    64.1647262830174         118.26102256758222       5.0                      # Si
34   34   2    64.1647262830174         118.26102256758222       11.081138669036534       # Si
35   35   2    74.03652952105638        118.26102256758222       5.0                      # Si
36   36   2    74.03652952105638        118.26102256758222       11.081138669036534       # Si
37   37   2    83.9077628264565         118.26102256758222       5.0                      # Si
38   38   2    83.9077628264565         118.26102256758222       11.081138669036534       # Si
39   39   2    93.7795660644955         118.26102256758222       5.0                      # Si
40   40   2    93.7795660644955         118.26102256758222       11.081138669036534       # Si
41   41   2    103.65079936989561       118.26102256758222       5.0                      # Si
42   42   2    103.65079936989561       118.26102256758222       11.081138669036534       # Si
43   43   2    157.94429234751289       121.11068576198178       5.0                      # Si
44   44   2    157.94429234751289       121.11068576198178       11.081138669036534       # Si
45   45   2    167.8160955855519        121.11068576198178       5.0                      # Si
46   46   2    167.8160955855519        121.11068576198178       11.081138669036534       # Si
47   47   2    177.687328890952         121.11068576198178       5.0                      # Si
48   48   2    177.687328890952         121.11068576198178       11.081138669036534       # Si
49   49   2    187.559132128991         121.11068576198178       5.0                      # Si
50   50   2    187.559132128991         121.11068576198178       11.081138669036534       # Si
51   51   2    197.43036543439112       121.11068576198178       5.0                      # Si
52   52   2    197.43036543439112       121.11068576198178       11.081138669036534       # Si
53   53   2    207.3021686724301        121.11068576198178       5.0                      # Si
54   54   2    207.3021686724301        121.11068576198178       11.081138669036534       # Si
55   55   2    217.1734019778302        121.11068576198178       5.0                      # Si
56   56   2    217.1734019778302        121.11068576198178       11.081138669036534       # Si
57   57   2    227.04520521586923       121.11068576198178       5.0                      # Si
58   58   2    227.04520521586923       121.11068576198178       11.081138669036534       # Si
59   59   2    236.91643852126933       121.11068576198178       5.0                      # Si
60   60   2    236.91643852126933       121.11068576198178       11.081138669036534       # Si
61   61   2    246.78824175930833       121.11068576198178       5.0                      # Si
62   62   2    246.78824175930833       121.11068576198178       11.081138669036534       # Si
63   63   2    256.65947506470843       121.11068576198178       5.0                      # Si
64   64   2    256.65947506470843       121.11068576198178       11.081138669036534       # Si
65   65   2    9.871803238038996        121.11068576198178       5.0                      # Si
66   66   2    9.871803238038996        121.11068576198178       11.081138669036534       # Si
67   67   2    19.74303654343911        121.11068576198178       5.0                      # Si
68   68   2    19.74303654343911        121.11068576198178       11.081138669036534       # Si
69   69   2    29.614839781478107       121.11068576198178       5.0                      # Si
70   70   2    29.614839781478107       121.11068576198178       11.081138669036534       # Si
71   71   2    39.48607308687822        121.11068576198178       5.0                      # Si
72   72   2    39.48607308687822        121.11068576198178       11.081138669036534       # Si
73   73   2    49.35787632491721        121.11068576198178       5.0                      # Si
74   74   2    49.35787632491721        121.11068576198178       11.081138669036534       # Si
75   75   2    59.22910963031733        121.11068576198178       5.0                      # Si
76   76   2    59.22910963031733        121.11068576198178       11.081138669036534       # Si
77   77   2    69.10091286835633        121.11068576198178       5.0                      # Si
78   78   2    69.10091286835633        121.11068576198178       11.081138669036534       # Si
79   79   2    78.97214617375644        121.11068576198178       5.0                      # Si
80   80   2    78.97214617375644        121.11068576198178       11.081138669036534       # Si
81   81   2    88.84394941179544        121.11068576198178       5.0                      # Si
82   82   2    88.84394941179544        121.11068576198178       11.081138669036534       # Si
83   83   2    98.71518271719556        121.11068576198178       5.0                      # Si
84   84   2    98.71518271719556        121.11068576198178       11.081138669036534       # Si
85   85   2    108.58698595523457       121.11068576198178       5.0                      # Si
86   86   2    108.58698595523457       121.11068576198178       11.081138669036534       # Si
87   87   2    157.94429234751289       126.81001215078093       5.0                      # Si
88   88   2    157.94429234751289       126.81001215078093       11.081138669036534       # Si
89   89   2    167.8160955855519        126.81001215078093       5.0                      # Si
90   90   2    167.8160955855519        126.81001215078093       11.081138669036534       # Si
91   91   2    177.687328890952         126.81001215078093       5.0                      # Si
92   92   2    177.687328890952         126.81001215078093       11.081138669036534       # Si
93   93   2    187.559132128991         126.81001215078093       5.0                      # Si
94   94   2    187.559132128991         126.81001215078093       11.081138669036534       # Si
95   95   2    197.43036543439112       126.81001215078093       5.0                      # Si
96   96   2    197.43036543439112       126.81001215078093       11.081138669036534       # Si
97   97   2    207.3021686724301        126.81001215078093       5.0                      # Si
98   98   2    207.3021686724301        126.81001215078093       11.081138669036534       # Si
99   99   2    217.1734019778302        126.81001215078093       5.0                      # Si
100  100  2    217.1734019778302        126.81001215078093       11.081138669036534       # Si
101  101  2    227.04520521586923       126.81001215078093       5.0                      # Si
102  102  2    227.04520521586923       126.81001215078093       11.081138669036534       # Si
103  103  2    236.91643852126933       126.81001215078093       5.0                      # Si
104  104  2    236.91643852126933       126.81001215078093       11.081138669036534       # Si
105  105  2    246.78824175930833       126.81001215078093       5.0                      # Si
106  106  2    246.78824175930833       126.81001215078093       11.081138669036534       # Si
107  107  2    256.65947506470843       126.81001215078093       5.0                      # Si
108  108  2    256.65947506470843       126.81001215078093       11.081138669036534       # Si
109  109  2    9.871803238038996        126.81001215078093       5.0                      # Si
110  110  2    9.871803238038996        126.81001215078093       11.081138669036534       # Si
111  111  2    19.74303654343911        126.81001215078093       5.0                      # Si
112  112  2    19.74303654343911        126.81001215078093       11.081138669036534       # Si
113  113  2    29.614839781478107       126.81001215078093       5.0                      # Si
114  114  2    29.614839781478107       126.81001215078093       11.081138669036534       # Si
115  115  2    39.48607308687822        126.81001215078093       5.0                      # Si
116  116  2    39.48607308687822        126.81001215078093       11.081138669036534       # Si
117  117  2    49.35787632491721        126.81001215078093       5.0                      # Si
118  118  2    49.35787632491721        126.81001215078093       11.081138669036534       # Si
119  119  2    59.22910963031733        126.81001215078093       5.0                      # Si
120  120  2    59.22910963031733        126.81001215078093       11.081138669036534       # Si
121  121  2    69.10091286835633        126.81001215078093       5.0                      # Si
122  122  2    69.10091286835633        126.81001215078093       11.081138669036534       # Si
123  123  2    78.97214617375644        126.81001215078093       5.0                      # Si
124  124  2    78.97214617375644        126.81001215078093       11.081138669036534       # Si
125  125  2    88.84394941179544        126.81001215078093       5.0                      # Si
126  126  2    88.84394941179544        126.81001215078093       11.081138669036534       # Si
127  127  2    98.71518271719556        126.81001215078093       5.0                      # Si
128  128  2    98.71518271719556        126.81001215078093       11.081138669036534       # Si
129  129  2    108.58698595523457       126.81001215078093       5.0                      # Si
130  130  2    108.58698595523457       126.81001215078093       11.081138669036534       # Si
131  131  2    133.26563915137373       129.6596753451805        5.0                      # Si
132  132  2    133.26563915137373       129.6596753451805        11.081138669036534       # Si
133  133  2    143.13687245677383       129.6596753451805        5.0                      # Si
134  134  2    143.13687245677383       129.6596753451805        11.081138669036534       # Si
135  135  2    153.00867569481284       129.6596753451805        5.0                      # Si
136  136  2    153.00867569481284       129.6596753451805        11.081138669036534       # Si
137  137  2    162.87990900021296       129.6596753451805        5.0                      # Si
138  138  2    162.87990900021296       129.6596753451805        11.081138669036534       # Si
139  139  2    172.75171223825194       129.6596753451805        5.0                      # Si
140  140  2    172.75171223825194       129.6596753451805        11.081138669036534       # Si
141  141  2    182.62294554365207       129.6596753451805        5.0                      # Si
142  142  2    182.62294554365207       129.6596753451805        11.081138669036534       # Si
143  143  2    192.49474878169107       129.6596753451805        5.0                      # Si
144  144  2    192.49474878169107       129.6596753451805        11.081138669036534       # Si
145  145  2    202.36598208709117       129.6596753451805        5.0                      # Si
146  146  2    202.36598208709117       129.6596753451805        11.081138669036534       # Si
147  147  2    212.23778532513015       129.6596753451805        5.0                      # Si
148  148  2    212.23778532513015       129.6596753451805        11.081138669036534       # Si
149  149  2    222.1090186305303        129.6596753451805        5.0                      # Si
150  150  2    222.1090186305303        129.6596753451805        11.081138669036534       # Si
151  151  2    231.98082186856928       129.6596753451805        5.0                      # Si
152  152  2    231.98082186856928       129.6596753451805        11.081138669036534       # Si
153  153  2    241.85205517396938       129.6596753451805        5.0                      # Si
154  154  2    241.85205517396938       129.6596753451805        11.081138669036534       # Si
155  155  2    251.72385841200838       129.6596753451805        5.0                      # Si
156  156  2    251.72385841200838       129.6596753451805        11.081138669036534       # Si
157  157  2    4.935616652700058        129.6596753451805        5.0                      # Si
158  158  2    4.935616652700058        129.6596753451805        11.081138669036534       # Si
159  159  2    14.807419890739054       129.6596753451805        5.0                      # Si
160  160  2    14.807419890739054       129.6596753451805        11.081138669036534       # Si
161  161  2    24.67865319613917        129.6596753451805        5.0                      # Si
162  162  2    24.67865319613917        129.6596753451805        11.081138669036534       # Si
163  163  2    34.550456434178166       129.6596753451805        5.0                      # Si
164  164  2    34.550456434178166       129.6596753451805        11.081138669036534       # Si
165  165  2    44.42168973957828        129.6596753451805        5.0                      # Si
166  166  2    44.42168973957828        129.6596753451805        11.081138669036534       # Si
167  167  2    54.293492977617284       129.6596753451805        5.0                      # Si
168  168  2    54.293492977617284       129.6596753451805        11.081138669036534       # Si
169  169  2    64.1647262830174         129.6596753451805        5.0                      # Si
170  170  2    64.1647262830174         129.6596753451805        11.081138669036534       # Si
171  171  2    74.03652952105638        129.6596753451805        5.0                      # Si
172  172  2    74.03652952105638        129.6596753451805        11.081138669036534       # Si
173  173  2    83.9077628264565         129.6596753451805        5.0                      # Si
174  174  2    83.9077628264565         129.6596753451805        11.081138669036534       # Si
175  175  2    93.7795660644955         129.6596753451805        5.0                      # Si
176  176  2    93.7795660644955         129.6596753451805        11.081138669036534       # Si
177  177  2    103.65079936989561       129.6596753451805        5.0                      # Si
178  178  2    103.65079936989561       129.6596753451805        11.081138669036534       # Si
179  179  2    113.52260260793462       129.6596753451805        5.0                      # Si
180  180  2    113.52260260793462       129.6596753451805        11.081138669036534       # Si
181  181  2    123.39383591333473       129.6596753451805        5.0                      # Si
182  182  2    123.39383591333473       129.6596753451805        11.081138669036534       # Si
183  183  2    133.26563915137373       135.35900173397965       5.0                      # Si
184  184  2    133.26563915137373       135.35900173397965       11.081138669036534       # Si
185  185  2    143.13687245677383       135.35900173397965       5.0                      # Si
186  186  2    143.13687245677383       135.35900173397965       11.081138669036534       # Si
187  187  2    153.00867569481284       135.35900173397965       5.0                      # Si
188  188  2    153.00867569481284       135.35900173397965       11.081138669036534       # Si
189  189  2    162.87990900021296       135.35900173397965       5.0                      # Si
190  190  2    162.87990900021296       135.35900173397965       11.081138669036534       # Si
191  191  2    172.75171223825194       135.35900173397965       5.0                      # Si
192  192  2    172.75171223825194       135.35900173397965       11.081138669036534       # Si
193  193  2    182.62294554365207       135.35900173397965       5.0                      # Si
194  194  2    182.62294554365207       135.35900173397965       11.081138669036534       # Si
195  195  2    192.49474878169107       135.35900173397965       5.0                      # Si
196  196  2    192.49474878169107       135.35900173397965       11.081138669036534       # Si
197  197  2    202.36598208709117       135.35900173397965       5.0                      # Si
198  198  2    202.36598208709117       135.35900173397965       11.081138669036534       # Si
199  199  2    212.23778532513015       135.35900173397965       5.0                      # Si
200  200  2    212.23778532513015       135.35900173397965       11.081138669036534       # Si
201  201  2    222.1090186305303        135.35900173397965       5.0                      # Si
202  202  2    222.1090186305303        135.35900173397965       11.081138669036534       # Si
203  203  2    231.98082186856928       135.35900173397965       5.0                      # Si
204  204  2    231.98082186856928       135.35900173397965       11.081138669036534       # Si
205  205  2    241.85205517396938       135.35900173397965       5.0                      # Si
206  206  2    241.85205517396938       135.35900173397965       11.081138669036534       # Si
207  207  2    251.72385841200838       135.35900173397965       5.0                      # Si
208  208  2    251.72385841200838       135.35900173397965       11.081138669036534       # Si
209  209  2    4.935616652700058        135.35900173397965       5.0                      # Si
210  210  2    4.935616652700058        135.35900173397965       11.081138669036534       # Si
211  211  2    14.807419890739054       135.35900173397965       5.0                      # Si
212  212  2    14.807419890739054       135.35900173397965       11.081138669036534       # Si
213  213  2    24.67865319613917        135.35900173397965       5.0                      # Si
214  214  2    24.67865319613917        135.35900173397965       11.081138669036534       # Si
215  215  2    34.550456434178166       135.35900173397965       5.0                      # Si
216  216  2    34.550456434178166       135.35900173397965       11.081138669036534       # Si
217  217  2    44.42168973957828        135.35900173397965       5.0                      # Si
218  218  2    44.42168973957828        135.35900173397965       11.081138669036534       # Si
219  219  2    54.293492977617284       135.35900173397965       5.0                      # Si
220  220  2    54.293492977617284       135.35900173397965       11.081138669036534       # Si
221  221  2    64.1647262830174         135.35900173397965       5.0                      # Si
222  222  2    64.1647262830174         135.35900173397965       11.081138669036534       # Si
223  223  2    74.03652952105638        135.35900173397965       5.0                      # Si
224  224  2    74.03652952105638        135.35900173397965       11.081138669036534       # Si
225  225  2    83.9077628264565         135.35900173397965       5.0                      # Si
226  226  2    83.9077628264565         135.35900173397965       11.081138669036534       # Si
227  227  2    93.7795660644955         135.35900173397965       5.0                      # Si
228  228  2    93.7795660644955         135.35900173397965       11.081138669036534       # Si
229  229  2    103.65079936989561       135.35900173397965       5.0                      # Si
230  230  2    103.65079936989561       135.35900173397965       11.081138669036534       # Si
231  231  2    113.52260260793462       135.35900173397965       5.0                      # Si
232  232  2    113.52260260793462       135.35900173397965       11.081138669036534       # Si
233  233  2    123.39383591333473       135.35900173397965       5.0                      # Si
234  234  2    123.39383591333473       135.35900173397965       11.081138669036534       # Si
235  235  2    128.33002249867366       138.20866492837922       5.0                      # Si
236  236  2    128.33002249867366       138.20866492837922       11.081138669036534       # Si
237  237  2    138.20125580407378       138.20866492837922       5.0                      # Si
238  238  2    138.20125580407378       138.20866492837922       11.081138669036534       # Si
239  239  2    148.07305904211276       138.20866492837922       5.0                      # Si
240  240  2    148.07305904211276       138.20866492837922       11.081138669036534       # Si
241  241  2    157.94429234751289       138.20866492837922       5.0                      # Si
242  242  2    157.94429234751289       138.20866492837922       11.081138669036534       # Si
243  243  2    167.8160955855519        138.20866492837922       5.0                      # Si
244  244  2    167.8160955855519        138.20866492837922       11.081138669036534       # Si
245  245  2    177.687328890952         138.20866492837922       5.0                      # Si
246  246  2    177.687328890952         138.20866492837922       11.081138669036534       # Si
247  247  2    187.559132128991         138.20866492837922       5.0                      # Si
248  248  2    187.559132128991         138.20866492837922       11.081138669036534       # Si
249  249  2    197.43036543439112       138.20866492837922       5.0                      # Si
250  250  2    197.43036543439112       138.20866492837922       11.081138669036534       # Si
251  251  2    207.3021686724301        138.20866492837922       5.0                      # Si
252  252  2    207.3021686724301        138.20866492837922       11.081138669036534       # Si
253  253  2    217.1734019778302        138.20866492837922       5.0                      # Si
254  254  2    217.1734019778302        138.20866492837922       11.081138669036534       # Si
255  255  2    227.04520521586923       138.20866492837922       5.0                      # Si
256  256  2    227.04520521586923       138.20866492837922       11.081138669036534       # Si
257  257  2    236.91643852126933       138.20866492837922       5.0                      # Si
258  258  2    236.91643852126933       138.20866492837922       11.081138669036534       # Si
259  259  2    246.78824175930833       138.20866492837922       5.0                      # Si
260  260  2    246.78824175930833       138.20866492837922       11.081138669036534       # Si
261  261  2    256.65947506470843       138.20866492837922       5.0                      # Si
262  262  2    256.65947506470843       138.20866492837922       11.081138669036534       # Si
263  263  2    9.871803238038996        138.20866492837922       5.0                      # Si
264  264  2    9.871803238038996        138.20866492837922       11.081138669036534       # Si
265  265  2    19.74303654343911        138.20866492837922       5.0                      # Si
266  266  2    19.74303654343911        138.20866492837922       11.081138669036534       # Si
267  267  2    29.614839781478107       138.20866492837922       5.0                      # Si
268  268  2    29.614839781478107       138.20866492837922       11.081138669036534       # Si
269  269  2    39.48607308687822        138.20866492837922       5.0                      # Si
270  270  2    39.48607308687822        138.20866492837922       11.081138669036534       # Si
271  271  2    49.35787632491721        138.20866492837922       5.0                      # Si
272  272  2    49.35787632491721        138.20866492837922       11.081138669036534       # Si
273  273  2    59.22910963031733        138.20866492837922       5.0                      # Si
274  274  2    59.22910963031733        138.20866492837922       11.081138669036534       # Si
275  275  2    69.10091286835633        138.20866492837922       5.0                      # Si
276  276  2    69.10091286835633        138.20866492837922       11.081138669036534       # Si
277  277  2    78.97214617375644        138.20866492837922       5.0                      # Si
278  278  2    78.97214617375644        138.20866492837922       11.081138669036534       # Si
279  279  2    88.84394941179544        138.20866492837922       5.0                      # Si
280  280  2    88.84394941179544        138.20866492837922       11.081138669036534       # Si
281  281  2    98.71518271719556        138.20866492837922       5.0                      # Si
282  282  2    98.71518271719556        138.20866492837922       11.081138669036534       # Si
283  283  2    108.58698595523457       138.20866492837922       5.0                      # Si
284  284  2    108.58698595523457       138.20866492837922       11.081138669036534       # Si
285  285  2    118.45821926063466       138.20866492837922       5.0                      # Si
286  286  2    118.45821926063466       138.20866492837922       11.081138669036534       # Si
287  287  2    138.20125580407378       143.90799131717836       5.0                      # Si
288  288  2    138.20125580407378       143.90799131717836       11.081138669036534       # Si
289  289  2    148.07305904211276       143.90799131717836       5.0                      # Si
290  290  2    148.07305904211276       143.90799131717836       11.081138669036534       # Si
291  291  2    157.94429234751289       143.90799131717836       5.0                      # Si
292  292  2    157.94429234751289       143.90799131717836       11.081138669036534       # Si
293  293  2    167.8160955855519        143.90799131717836       5.0                      # Si
294  294  2    167.8160955855519        143.90799131717836       11.081138669036534       # Si
295  295  2    177.687328890952         143.90799131717836       5.0                      # Si
296  296  2    177.687328890952         143.90799131717836       11.081138669036534       # Si
297  297  2    187.559132128991         143.90799131717836       5.0                      # Si
298  298  2    187.559132128991         143.90799131717836       11.081138669036534       # Si
299  299  2    197.43036543439112       143.90799131717836       5.0                      # Si
300  300  2    197.43036543439112       143.90799131717836       11.081138669036534       # Si
301  301  2    207.3021686724301        143.90799131717836       5.0                      # Si
302  302  2    207.3021686724301        143.90799131717836       11.081138669036534       # Si
303  303  2    217.1734019778302        143.90799131717836       5.0                      # Si
304  304  2    217.1734019778302        143.90799131717836       11.081138669036534       # Si
305  305  2    227.04520521586923       143.90799131717836       5.0                      # Si
306  306  2    227.04520521586923       143.90799131717836       11.081138669036534       # Si
307  307  2    236.91643852126933       143.90799131717836       5.0                      # Si
308  308  2    236.91643852126933       143.90799131717836       11.081138669036534       # Si
309  309  2    246.78824175930833       143.90799131717836       5.0                      # Si
310  310  2    246.78824175930833       143.90799131717836       11.081138669036534       # Si
311  311  2    256.65947506470843       143.90799131717836       5.0                      # Si