DATA FILE Produced from netmc results (cf David Morley)
1265 atoms
3036 bonds
0 angles
0 dihedrals
0 impropers
2 atom types
2 bond types
0 angle types
0 dihedral types
0 improper types
0.00000 157.95360224928342 xlo xhi
0.00000 136.791831777698 ylo yhi

# Pair Coeffs
#
# 1  O
# 2  Si

# Bond Coeffs
# 
# 1  O-O
# 2  Si-O
# 3  O-O rep
# 4  Si-Si rep

 Masses

1 28.10000 # O 
2 32.01000 # Si

 Atoms # molecular

1    1    2    93.78504983275548        75.52049046060411        5.0                      # Si
2    2    2    103.65686035937935       75.52049046060411        5.0                      # Si
3    3    2    113.52924085196898       75.52049046060411        5.0                      # Si
4    4    2    123.40105137859285       75.52049046060411        5.0                      # Si
5    5    2    133.27343187118245       75.52049046060411        5.0                      # Si
6    6    2    143.1452423978063        75.52049046060411        5.0                      # Si
7    7    2    153.01762289039596       75.52049046060411        5.0                      # Si
8    8    2    4.935905263311936        75.52049046060411        5.0                      # Si
9    9    2    14.808285755901549       75.52049046060411        5.0                      # Si
10   10   2    24.68009628252542        75.52049046060411        5.0                      # Si
11   11   2    34.55247677511503        75.52049046060411        5.0                      # Si
12   12   2    44.42428730173891        75.52049046060411        5.0                      # Si
13   13   2    54.29666779432852        75.52049046060411        5.0                      # Si
14   14   2    64.16847832095239        75.52049046060411        5.0                      # Si
15   15   2    88.84914456944355        78.37032028930614        5.0                      # Si
16   16   2    98.72095509606741        78.37032028930614        5.0                      # Si
17   17   2    108.59333558865704       78.37032028930614        5.0                      # Si
18   18   2    118.46514611528092       78.37032028930614        5.0                      # Si
19   19   2    128.33752660787053       78.37032028930614        5.0                      # Si
20   20   2    138.20933713449438       78.37032028930614        5.0                      # Si
21   21   2    148.08171762708398       78.37032028930614        5.0                      # Si
22   22   2    157.95352815370788       78.37032028930614        5.0                      # Si
23   23   2    9.872380492589613        78.37032028930614        5.0                      # Si
24   24   2    19.744191019213485       78.37032028930614        5.0                      # Si
25   25   2    29.616571511803098       78.37032028930614        5.0                      # Si
26   26   2    39.48838203842697        78.37032028930614        5.0                      # Si
27   27   2    49.360762531016576       78.37032028930614        5.0                      # Si
28   28   2    59.23257305764046        78.37032028930614        5.0                      # Si
29   29   2    69.10495355023006        78.37032028930614        5.0                      # Si
30   30   2    88.84914456944355        84.06997994671022        5.0                      # Si
31   31   2    98.72095509606741        84.06997994671022        5.0                      # Si
32   32   2    108.59333558865704       84.06997994671022        5.0                      # Si
33   33   2    118.46514611528092       84.06997994671022        5.0                      # Si
34   34   2    128.33752660787053       84.06997994671022        5.0                      # Si
35   35   2    138.20933713449438       84.06997994671022        5.0                      # Si
36   36   2    148.08171762708398       84.06997994671022        5.0                      # Si
37   37   2    157.95352815370788       84.06997994671022        5.0                      # Si
38   38   2    9.872380492589613        84.06997994671022        5.0                      # Si
39   39   2    19.744191019213485       84.06997994671022        5.0                      # Si
40   40   2    29.616571511803098       84.06997994671022        5.0                      # Si
41   41   2    39.48838203842697        84.06997994671022        5.0                      # Si
42   42   2    49.360762531016576       84.06997994671022        5.0                      # Si
43   43   2    59.23257305764046        84.06997994671022        5.0                      # Si
44   44   2    69.10495355023006        84.06997994671022        5.0                      # Si
45   45   2    78.97676407685394        84.06997994671022        5.0                      # Si
46   46   2    83.91266934016588        86.91980977541226        5.0                      # Si
47   47   2    93.78504983275548        86.91980977541226        5.0                      # Si
48   48   2    103.65686035937935       86.91980977541226        5.0                      # Si
49   49   2    113.52924085196898       86.91980977541226        5.0                      # Si
50   50   2    123.40105137859285       86.91980977541226        5.0                      # Si
51   51   2    133.27343187118245       86.91980977541226        5.0                      # Si
52   52   2    143.1452423978063        86.91980977541226        5.0                      # Si
53   53   2    153.01762289039596       86.91980977541226        5.0                      # Si
54   54   2    4.935905263311936        86.91980977541226        5.0                      # Si
55   55   2    14.808285755901549       86.91980977541226        5.0                      # Si
56   56   2    24.68009628252542        86.91980977541226        5.0                      # Si
57   57   2    34.55247677511503        86.91980977541226        5.0                      # Si
58   58   2    44.42428730173891        86.91980977541226        5.0                      # Si
59   59   2    54.29666779432852        86.91980977541226        5.0                      # Si
60   60   2    64.16847832095239        86.91980977541226        5.0                      # Si
61   61   2    74.04085881354199        86.91980977541226        5.0                      # Si
62   62   2    83.91266934016588        92.61946943281635        5.0                      # Si
63   63   2    93.78504983275548        92.61946943281635        5.0                      # Si
64   64   2    103.65686035937935       92.61946943281635        5.0                      # Si
65   65   2    113.52924085196898       92.61946943281635        5.0                      # Si
66   66   2    123.40105137859285       92.61946943281635        5.0                      # Si
67   67   2    133.27343187118245       92.61946943281635        5.0                      # Si
68   68   2    143.1452423978063        92.61946943281635        5.0                      # Si
69   69   2    153.01762289039596       92.61946943281635        5.0                      # Si
70   70   2    4.935905263311936        92.61946943281635        5.0                      # Si
71   71   2    14.808285755901549       92.61946943281635        5.0                      # Si
72   72   2    24.68009628252542        92.61946943281635        5.0                      # Si
73   73   2    34.55247677511503        92.61946943281635        5.0                      # Si
74   74   2    44.42428730173891        92.61946943281635        5.0                      # Si
75   75   2    54.29666779432852        92.61946943281635        5.0                      # Si
76   76   2    64.16847832095239        92.61946943281635        5.0                      # Si
77   77   2    74.04085881354199        92.61946943281635        5.0                      # Si
78   78   2    78.97676407685394        95.46929926151839        5.0                      # Si
79   79   2    88.84914456944355        95.46929926151839        5.0                      # Si
80   80   2    98.72095509606741        95.46929926151839        5.0                      # Si
81   81   2    108.59333558865704       95.46929926151839        5.0                      # Si
82   82   2    118.46514611528092       95.46929926151839        5.0                      # Si
83   83   2    128.33752660787053       95.46929926151839        5.0                      # Si
84   84   2    138.20933713449438       95.46929926151839        5.0                      # Si
85   85   2    148.08171762708398       95.46929926151839        5.0                      # Si
86   86   2    157.95352815370788       95.46929926151839        5.0                      # Si
87   87   2    9.872380492589613        95.46929926151839        5.0                      # Si
88   88   2    19.744191019213485       95.46929926151839        5.0                      # Si
89   89   2    29.616571511803098       95.46929926151839        5.0                      # Si
90   90   2    39.48838203842697        95.46929926151839        5.0                      # Si
91   91   2    49.360762531016576       95.46929926151839        5.0                      # Si
92   92   2    59.23257305764046        95.46929926151839        5.0                      # Si
93   93   2    69.10495355023006        95.46929926151839        5.0                      # Si
94   94   2    88.84914456944355        101.16895891892247       5.0                      # Si
95   95   2    98.72095509606741        101.16895891892247       5.0                      # Si
96   96   2    108.59333558865704       101.16895891892247       5.0                      # Si
97   97   2    118.46514611528092       101.16895891892247       5.0                      # Si
98   98   2    128.33752660787053       101.16895891892247       5.0                      # Si
99   99   2    138.20933713449438       101.16895891892247       5.0                      # Si
100  100  2    148.08171762708398       101.16895891892247       5.0                      # Si
101  101  2    157.95352815370788       101.16895891892247       5.0                      # Si
102  102  2    9.872380492589613        101.16895891892247       5.0                      # Si
103  103  2    19.744191019213485       101.16895891892247       5.0                      # Si
104  104  2    29.616571511803098       101.16895891892247       5.0                      # Si
105  105  2    39.48838203842697        101.16895891892247       5.0                      # Si
106  106  2    49.360762531016576       101.16895891892247       5.0                      # Si
107  107  2    59.23257305764046        101.16895891892247       5.0                      # Si
108  108  2    69.10495355023006        101.16895891892247       5.0                      # Si
109  109  2    78.97676407685394        101.16895891892247       5.0                      # Si
110  110  2    83.91266934016588        104.01878874762451       5.0                      # Si
111  111  2    93.78504983275548        104.01878874762451       5.0                      # Si
112  112  2    103.65686035937935       104.01878874762451       5.0                      # Si
113  113  2    113.52924085196898       104.01878874762451       5.0                      # Si
114  114  2    123.40105137859285       104.01878874762451       5.0                      # Si
115  115  2    133.27343187118245       104.01878874762451       5.0                      # Si
116  116  2    143.1452423978063        104.01878874762451       5.0                      # Si
117  117  2    153.01762289039596       104.01878874762451       5.0                      # Si
118  118  2    4.935905263311936        104.01878874762451       5.0                      # Si
119  119  2    14.808285755901549       104.01878874762451       5.0                      # Si
120  120  2    24.68009628252542        104.01878874762451       5.0                      # Si
121  121  2    34.55247677511503        104.01878874762451       5.0                      # Si
122  122  2    44.42428730173891        104.01878874762451       5.0                      # Si
123  123  2    54.29666779432852        104.01878874762451       5.0                      # Si
124  124  2    64.16847832095239        104.01878874762451       5.0                      # Si
125  125  2    74.04085881354199        104.01878874762451       5.0                      # Si
126  126  2    83.91266934016588        109.7184484050286        5.0                      # Si
127  127  2    93.78504983275548        109.7184484050286        5.0                      # Si
128  128  2    103.65686035937935       109.7184484050286        5.0                      # Si
129  129  2    113.52924085196898       109.7184484050286        5.0                      # Si
130  130  2    123.40105137859285       109.7184484050286        5.0                      # Si
131  131  2    133.27343187118245       109.7184484050286        5.0                      # Si
132  132  2    143.1452423978063        109.7184484050286        5.0                      # Si
133  133  2    153.01762289039596       109.7184484050286        5.0                      # Si
134  134  2    4.935905263311936        109.7184484050286        5.0                      # Si
135  135  2    14.808285755901549       109.7184484050286        5.0                      # Si
136  136  2    24.68009628252542        109.7184484050286        5.0                      # Si
137  137  2    34.55247677511503        109.7184484050286        5.0                      # Si
138  138  2    44.42428730173891        109.7184484050286        5.0                      # Si
139  139  2    54.29666779432852        109.7184484050286        5.0                      # Si
140  140  2    64.16847832095239        109.7184484050286        5.0                      # Si
141  141  2    74.04085881354199        109.7184484050286        5.0                      # Si
142  142  2    78.97676407685394        112.56827823373064       5.0                      # Si
143  143  2    88.84914456944355        112.56827823373064       5.0                      # Si
144  144  2    98.72095509606741        112.56827823373064       5.0                      # Si
145  145  2    108.59333558865704       112.56827823373064       5.0                      # Si
146  146  2    118.46514611528092       112.56827823373064       5.0                      # Si
147  147  2    128.33752660787053       112.56827823373064       5.0                      # Si
148  148  2    138.20933713449438       112.56827823373064       5.0                      # Si
149  149  2    148.08171762708398       112.56827823373064       5.0                      # Si
150  150  2    157.95352815370788       112.56827823373064       5.0                      # Si
151  151  2    9.872380492589613        112.56827823373064       5.0                      # Si
152  152  2    19.744191019213485       112.56827823373064       5.0                      # Si
153  153  2    29.616571511803098       112.56827823373064       5.0                      # Si
154  154  2    39.48838203842697        112.56827823373064       5.0                      # Si
155  155  2    49.360762531016576       112.56827823373064       5.0                      # Si
156  156  2    59.23257305764046        112.56827823373064       5.0                      # Si
157  157  2    69.10495355023006        112.56827823373064       5.0                      # Si
158  158  2    88.84914456944355        118.26793789113472       5.0                      # Si
159  159  2    98.72095509606741        118.26793789113472       5.0                      # Si
160  160  2    108.59333558865704       118.26793789113472       5.0                      # Si
161  161  2    118.46514611528092       118.26793789113472       5.0                      # Si
162  162  2    128.33752660787053       118.26793789113472       5.0                      # Si
163  163  2    138.20933713449438       118.26793789113472       5.0                      # Si
164  164  2    148.08171762708398       118.26793789113472       5.0                      # Si
165  165  2    157.95352815370788       118.26793789113472       5.0                      # Si
166  166  2    9.872380492589613        118.26793789113472       5.0                      # Si
167  167  2    19.744191019213485       118.26793789113472       5.0                      # Si
168  168  2    29.616571511803098       118.26793789113472       5.0                      # Si
169  169  2    39.48838203842697        118.26793789113472       5.0                      # Si
170  170  2    49.360762531016576       118.26793789113472       5.0                      # Si
171  171  2    59.23257305764046        118.26793789113472       5.0                      # Si
172  172  2    69.10495355023006        118.26793789113472       5.0                      # Si
173  173  2    78.97676407685394        118.26793789113472       5.0                      # Si
174  174  2    83.91266934016588        121.11776771983676       5.0                      # Si
175  175  2    93.78504983275548        121.11776771983676       5.0                      # Si
176  176  2    103.65686035937935       121.11776771983676       5.0                      # Si
177  177  2    113.52924085196898       121.11776771983676       5.0                      # Si
178  178  2    123.40105137859285       121.11776771983676       5.0                      # Si
179  179  2    133.27343187118245       121.11776771983676       5.0                      # Si
180  180  2    143.1452423978063        121.11776771983676       5.0                      # Si
181  181  2    153.01762289039596       121.11776771983676       5.0                      # Si
182  182  2    4.935905263311936        121.11776771983676       5.0                      # Si
183  183  2    14.808285755901549       121.11776771983676       5.0                      # Si
184  184  2    24.68009628252542        121.11776771983676       5.0                      # Si
185  185  2    34.55247677511503        121.11776771983676       5.0                      # Si
186  186  2    44.42428730173891        121.11776771983676       5.0                      # Si
187  187  2    54.29666779432852        121.11776771983676       5.0                      # Si
188  188  2    64.16847832095239        121.11776771983676       5.0                      # Si
189  189  2    74.04085881354199        121.11776771983676       5.0                      # Si
190  190  2    83.91266934016588        126.81742737724085       5.0                      # Si
191  191  2    93.78504983275548        126.81742737724085       5.0                      # Si
192  192  2    103.65686035937935       126.81742737724085       5.0                      # Si
193  193  2    113.52924085196898       126.81742737724085       5.0                      # Si
194  194  2    123.40105137859285       126.81742737724085       5.0                      # Si
195  195  2    133.27343187118245       126.81742737724085       5.0                      # Si
196  196  2    143.1452423978063        126.81742737724085       5.0                      # Si
197  197  2    153.01762289039596       126.81742737724085       5.0                      # Si
198  198  2    4.935905263311936        126.81742737724085       5.0                      # Si
199  199  2    14.808285755901549       126.81742737724085       5.0                      # Si
200  200  2    24.68009628252542        126.81742737724085       5.0                      # Si
201  201  2    34.55247677511503        126.81742737724085       5.0                      # Si
202  202  2    44.42428730173891        126.81742737724085       5.0                      # Si
203  203  2    54.29666779432852        126.81742737724085       5.0                      # Si
204  204  2    64.16847832095239        126.81742737724085       5.0                      # Si
205  205  2    74.04085881354199        126.81742737724085       5.0                      # Si
206  206  2    78.97676407685394        129.6672572059429        5.0                      # Si
207  207  2    88.84914456944355        129.6672572059429        5.0                      # Si
208  208  2    98.72095509606741        129.6672572059429        5.0                      # Si
209  209  2    108.59333558865704       129.6672572059429        5.0                      # Si
210  210  2    118.46514611528092       129.6672572059429        5.0                      # Si
211  211  2    128.33752660787053       129.6672572059429        5.0                      # Si
212  212  2    138.20933713449438       129.6672572059429        5.0                      # Si
213  213  2    148.08171762708398       129.6672572059429        5.0                      # Si
214  214  2    157.95352815370788       129.6672572059429        5.0                      # Si
215  215  2    9.872380492589613        129.6672572059429        5.0                      # Si
216  216  2    19.744191019213485       129.6672572059429        5.0                      # Si
217  217  2    29.616571511803098       129.6672572059429        5.0                      # Si
218  218  2    39.48838203842697        129.6672572059429        5.0                      # Si
219  219  2    49.360762531016576       129.6672572059429        5.0                      # Si
220  220  2    59.23257305764046        129.6672572059429        5.0                      # Si
221  221  2    69.10495355023006        129.6672572059429        5.0                      # Si
222  222  2    88.84914456944355        135.36691686334697       5.0                      # Si
223  223  2    98.72095509606741        135.36691686334697       5.0                      # Si
224  224  2    108.59333558865704       135.36691686334697       5.0                      # Si
225  225  2    118.46514611528092       135.36691686334697       5.0                      # Si
226  226  2    128.33752660787053       135.36691686334697       5.0                      # Si
227  227  2    138.20933713449438       135.36691686334697       5.0                      # Si
228  228  2    148.08171762708398       135.36691686334697       5.0                      # Si
229  229  2    157.95352815370788       135.36691686334697       5.0                      # Si
230  230  2    9.872380492589613        135.36691686334697       5.0                      # Si
231  231  2    19.744191019213485       135.36691686334697       5.0                      # Si
232  232  2    29.616571511803098       135.36691686334697       5.0                      # Si
233  233  2    39.48838203842697        135.36691686334697       5.0                      # Si
234  234  2    49.360762531016576       135.36691686334697       5.0                      # Si
235  235  2    59.23257305764046        135.36691686334697       5.0                      # Si
236  236  2    69.10495355023006        135.36691686334697       5.0                      # Si
237  237  2    78.97676407685394        135.36691686334697       5.0                      # Si
238  238  2    83.91266934016588        1.4249149143510207       5.0                      # Si
239  239  2    93.78504983275548        1.4249149143510207       5.0                      # Si
240  240  2    103.65686035937935       1.4249149143510207       5.0                      # Si
241  241  2    113.52924085196898       1.4249149143510207       5.0                      # Si
242  242  2    123.40105137859285       1.4249149143510207       5.0                      # Si
243  243  2    133.27343187118245       1.4249149143510207       5.0                      # Si
244  244  2    143.1452423978063        1.4249149143510207       5.0                      # Si
245  245  2    153.01762289039596       1.4249149143510207       5.0                      # Si
246  246  2    4.935905263311936        1.4249149143510207       5.0                      # Si
247  247  2    14.808285755901549       1.4249149143510207       5.0                      # Si
248  248  2    24.68009628252542        1.4249149143510207       5.0                      # Si
249  249  2    34.55247677511503        1.4249149143510207       5.0                      # Si
250  250  2    44.42428730173891        1.4249149143510207       5.0                      # Si
251  251  2    54.29666779432852        1.4249149143510207       5.0                      # Si
252  252  2    64.16847832095239        1.4249149143510207       5.0                      # Si
253  253  2    74.04085881354199        1.4249149143510207       5.0                      # Si
254  254  2    83.91266934016588        7.124574571755104        5.0                      # Si
255  255  2    93.78504983275548        7.124574571755104        5.0                      # Si
256  256  2    103.65686035937935       7.124574571755104        5.0                      # Si
257  257  2    113.52924085196898       7.124574571755104        5.0                      # Si
258  258  2    123.40105137859285       7.124574571755104        5.0                      # Si
259  259  2    133.27343187118245       7.124574571755104        5.0                      # Si
260  260  2    143.1452423978063        7.124574571755104        5.0                      # Si
261  261  2    153.01762289039596       7.124574571755104        5.0                      # Si
262  262  2    4.935905263311936        7.124574571755104        5.0                      # Si
263  263  2    14.808285755901549       7.124574571755104        5.0                      # Si
264  264  2    24.68009628252542        7.124574571755104        5.0                      # Si
265  265  2    34.55247677511503        7.124574571755104        5.0                      # Si
266  266  2    44.42428730173891        7.124574571755104        5.0                      # Si
267  267  2    54.29666779432852        7.124574571755104        5.0                      # Si
268  268  2    64.16847832095239        7.124574571755104        5.0                      # Si
269  269  2    74.04085881354199        7.124574571755104        5.0                      # Si
270  270  2    78.97676407685394        9.974404400457145        5.0                      # Si
271  271  2    88.84914456944355        9.974404400457145        5.0                      # Si
272  272  2    98.72095509606741        9.974404400457145        5.0                      # Si
273  273  2    108.59333558865704       9.974404400457145        5.0                      # Si
274  274  2    118.46514611528092       9.974404400457145        5.0                      # Si
275  275  2    128.33752660787053       9.974404400457145        5.0                      # Si
276  276  2    138.20933713449438       9.974404400457145        5.0                      # Si
277  277  2    148.08171762708398       9.974404400457145        5.0                      # Si
278  278  2    157.95352815370788       9.974404400457145        5.0                      # Si
279  279  2    9.872380492589613        9.974404400457145        5.0                      # Si
280  280  2    19.744191019213485       9.974404400457145        5.0                      # Si
281  281  2    29.616571511803098       9.974404400457145        5.0                      # Si
282  282  2    39.48838203842697        9.974404400457145        5.0                      # Si
283  283  2    49.360762531016576       9.974404400457145        5.0                      # Si
284  284  2    59.23257305764046        9.974404400457145        5.0                      # Si
285  285  2    69.10495355023006        9.974404400457145        5.0                      # Si
286  286  2    88.84914456944355        15.674064057861228       5.0                      # Si
287  287  2    98.72095509606741        15.674064057861228       5.0                      # Si
288  288  2    108.59333558865704       15.674064057861228       5.0                      # Si
289  289  2    118.46514611528092       15.674064057861228       5.0                      # Si
290  290  2    128.33752660787053       15.674064057861228       5.0                      # Si
291  291  2    138.20933713449438       15.674064057861228       5.0                      # Si
292  292  2    148.08171762708398       15.674064057861228       5.0                      # Si
293  293  2    157.95352815370788       15.674064057861228       5.0                      # Si
294  294  2    9.872380492589613        15.674064057861228       5.0                      # Si
295  295  2    19.744191019213485       15.674064057861228       5.0                      # Si
296  296  2    29.616571511803098       15.674064057861228       5.0                      # Si
297  297  2    39.48838203842697        15.674064057861228       5.0                      # Si
298  298  2    49.360762531016576       15.674064057861228       5.0                      # Si
299  299  2    59.23257305764046        15.674064057861228       5.0                      # Si
300  300  2    69.10495355023006        15.674064057861228       5.0                      # Si
301  301  2    78.97676407685394        15.674064057861228       5.0                      # Si
302  302  2    83.91266934016588        18.523893886563272       5.0                      # Si
303  303  2    93.78504983275548        18.523893886563272       5.0                      # Si
304  304  2    103.65686035937935       18.523893886563272       5.0                      # Si
305  305  2    113.52924085196898       18.523893886563272       5.0                      # Si
306  306  2    123.40105137859285       18.523893886563272       5.0                      # Si
307  307  2    133.27343187118245       18.523893886563272       5.0                      # Si
308  308  2    143.1452423978063        18.523893886563272       5.0                      # Si
309  309  2    153.01762289039596       18.523893886563272       5.0                      # Si
310  310  2    4.935905263311936        18.523893886563272       5.0                      # Si
311  311  2    14.808285755901549       18.523893886563272       5.0                      # Si