DATA FILE Produced from netmc results (cf David Morley)
3012 atoms
10040 bonds
0 angles
0 dihedrals
0 impropers
2 atom types
0 bond types
2 bond types
0 angle types
0 dihedral types
0 improper types
0.00000 157.32804097067654 xlo xhi
0.00000 136.25007982034293 ylo yhi
0.0000 200.0000 zlo zhi

# Pair Coeffs
#
# 1  O
# 2  Si

# Bond Coeffs
# 
# 1  O-O
# 2  Si-O
# 3  O-O rep
# 4  Si-Si rep

 Masses

1 28.10000 # O 
2 32.01000 # Si

 Atoms # molecular

1    1    2    103.24633652719444       75.22139823414766        5.0                      # Si
2    2    2    103.24633652719444       75.22139823414766        11.081138669036534       # Si
3    3    2    113.07961832956178       75.22139823414766        5.0                      # Si
4    4    2    113.07961832956178       75.22139823414766        11.081138669036534       # Si
5    5    2    122.91233242326321       75.22139823414766        5.0                      # Si
6    6    2    122.91233242326321       75.22139823414766        11.081138669036534       # Si
7    7    2    132.74561422563053       75.22139823414766        5.0                      # Si
8    8    2    132.74561422563053       75.22139823414766        11.081138669036534       # Si
9    9    2    142.57832831933194       75.22139823414766        5.0                      # Si
10   10   2    142.57832831933194       75.22139823414766        11.081138669036534       # Si
11   11   2    152.41161012169928       75.22139823414766        5.0                      # Si
12   12   2    152.41161012169928       75.22139823414766        11.081138669036534       # Si
13   13   2    4.916357046850708        75.22139823414766        5.0                      # Si
14   14   2    4.916357046850708        75.22139823414766        11.081138669036534       # Si
15   15   2    14.74963884921804        75.22139823414766        5.0                      # Si
16   16   2    14.74963884921804        75.22139823414766        11.081138669036534       # Si
17   17   2    24.582352942919453       75.22139823414766        5.0                      # Si
18   18   2    24.582352942919453       75.22139823414766        11.081138669036534       # Si
19   19   2    34.41563474528679        75.22139823414766        5.0                      # Si
20   20   2    34.41563474528679        75.22139823414766        11.081138669036534       # Si
21   21   2    44.24834883898821        75.22139823414766        5.0                      # Si
22   22   2    44.24834883898821        75.22139823414766        11.081138669036534       # Si
23   23   2    54.081630641355545       75.22139823414766        5.0                      # Si
24   24   2    54.081630641355545       75.22139823414766        11.081138669036534       # Si
25   25   2    63.91434473505695        75.22139823414766        5.0                      # Si
26   26   2    63.91434473505695        75.22139823414766        11.081138669036534       # Si
27   27   2    98.32997948034372        78.05994156373814        5.0                      # Si
28   28   2    98.32997948034372        78.05994156373814        11.081138669036534       # Si
29   29   2    108.16326128271109       78.05994156373814        5.0                      # Si
30   30   2    108.16326128271109       78.05994156373814        11.081138669036534       # Si
31   31   2    117.99597537641249       78.05994156373814        5.0                      # Si
32   32   2    117.99597537641249       78.05994156373814        11.081138669036534       # Si
33   33   2    127.82925717877983       78.05994156373814        5.0                      # Si
34   34   2    127.82925717877983       78.05994156373814        11.081138669036534       # Si
35   35   2    137.66197127248122       78.05994156373814        5.0                      # Si
36   36   2    137.66197127248122       78.05994156373814        11.081138669036534       # Si
37   37   2    147.49525307484856       78.05994156373814        5.0                      # Si
38   38   2    147.49525307484856       78.05994156373814        11.081138669036534       # Si
39   39   2    157.32796716854997       78.05994156373814        5.0                      # Si
40   40   2    157.32796716854997       78.05994156373814        11.081138669036534       # Si
41   41   2    9.833281802367333        78.05994156373814        5.0                      # Si
42   42   2    9.833281802367333        78.05994156373814        11.081138669036534       # Si
43   43   2    19.665995896068747       78.05994156373814        5.0                      # Si
44   44   2    19.665995896068747       78.05994156373814        11.081138669036534       # Si
45   45   2    29.49927769843608        78.05994156373814        5.0                      # Si
46   46   2    29.49927769843608        78.05994156373814        11.081138669036534       # Si
47   47   2    39.331991792137494       78.05994156373814        5.0                      # Si
48   48   2    39.331991792137494       78.05994156373814        11.081138669036534       # Si
49   49   2    49.16527359450483        78.05994156373814        5.0                      # Si
50   50   2    49.16527359450483        78.05994156373814        11.081138669036534       # Si
51   51   2    58.997987688206244       78.05994156373814        5.0                      # Si
52   52   2    58.997987688206244       78.05994156373814        11.081138669036534       # Si
53   53   2    68.83126949057358        78.05994156373814        5.0                      # Si
54   54   2    68.83126949057358        78.05994156373814        11.081138669036534       # Si
55   55   2    98.32997948034372        83.7370282229191         5.0                      # Si
56   56   2    98.32997948034372        83.7370282229191         11.081138669036534       # Si
57   57   2    108.16326128271109       83.7370282229191         5.0                      # Si
58   58   2    108.16326128271109       83.7370282229191         11.081138669036534       # Si
59   59   2    117.99597537641249       83.7370282229191         5.0                      # Si
60   60   2    117.99597537641249       83.7370282229191         11.081138669036534       # Si
61   61   2    127.82925717877983       83.7370282229191         5.0                      # Si
62   62   2    127.82925717877983       83.7370282229191         11.081138669036534       # Si
63   63   2    137.66197127248122       83.7370282229191         5.0                      # Si
64   64   2    137.66197127248122       83.7370282229191         11.081138669036534       # Si
65   65   2    147.49525307484856       83.7370282229191         5.0                      # Si
66   66   2    147.49525307484856       83.7370282229191         11.081138669036534       # Si
67   67   2    157.32796716854997       83.7370282229191         5.0                      # Si
68   68   2    157.32796716854997       83.7370282229191         11.081138669036534       # Si
69   69   2    9.833281802367333        83.7370282229191         5.0                      # Si
70   70   2    9.833281802367333        83.7370282229191         11.081138669036534       # Si
71   71   2    19.665995896068747       83.7370282229191         5.0                      # Si
72   72   2    19.665995896068747       83.7370282229191         11.081138669036534       # Si
73   73   2    29.49927769843608        83.7370282229191         5.0                      # Si
74   74   2    29.49927769843608        83.7370282229191         11.081138669036534       # Si
75   75   2    39.331991792137494       83.7370282229191         5.0                      # Si
76   76   2    39.331991792137494       83.7370282229191         11.081138669036534       # Si
77   77   2    49.16527359450483        83.7370282229191         5.0                      # Si
78   78   2    49.16527359450483        83.7370282229191         11.081138669036534       # Si
79   79   2    58.997987688206244       83.7370282229191         5.0                      # Si
80   80   2    58.997987688206244       83.7370282229191         11.081138669036534       # Si
81   81   2    68.83126949057358        83.7370282229191         5.0                      # Si
82   82   2    68.83126949057358        83.7370282229191         11.081138669036534       # Si
83   83   2    83.58034063112571        86.57557155250957        5.0                      # Si
84   84   2    83.58034063112571        86.57557155250957        11.081138669036534       # Si
85   85   2    93.41362243349303        86.57557155250957        5.0                      # Si
86   86   2    93.41362243349303        86.57557155250957        11.081138669036534       # Si
87   87   2    103.24633652719444       86.57557155250957        5.0                      # Si
88   88   2    103.24633652719444       86.57557155250957        11.081138669036534       # Si
89   89   2    113.07961832956178       86.57557155250957        5.0                      # Si
90   90   2    113.07961832956178       86.57557155250957        11.081138669036534       # Si
91   91   2    122.91233242326321       86.57557155250957        5.0                      # Si
92   92   2    122.91233242326321       86.57557155250957        11.081138669036534       # Si
93   93   2    132.74561422563053       86.57557155250957        5.0                      # Si
94   94   2    132.74561422563053       86.57557155250957        11.081138669036534       # Si
95   95   2    142.57832831933194       86.57557155250957        5.0                      # Si
96   96   2    142.57832831933194       86.57557155250957        11.081138669036534       # Si
97   97   2    152.41161012169928       86.57557155250957        5.0                      # Si
98   98   2    152.41161012169928       86.57557155250957        11.081138669036534       # Si
99   99   2    4.916357046850708        86.57557155250957        5.0                      # Si
100  100  2    4.916357046850708        86.57557155250957        11.081138669036534       # Si
101  101  2    14.74963884921804        86.57557155250957        5.0                      # Si
102  102  2    14.74963884921804        86.57557155250957        11.081138669036534       # Si
103  103  2    24.582352942919453       86.57557155250957        5.0                      # Si
104  104  2    24.582352942919453       86.57557155250957        11.081138669036534       # Si
105  105  2    34.41563474528679        86.57557155250957        5.0                      # Si
106  106  2    34.41563474528679        86.57557155250957        11.081138669036534       # Si
107  107  2    44.24834883898821        86.57557155250957        5.0                      # Si
108  108  2    44.24834883898821        86.57557155250957        11.081138669036534       # Si
109  109  2    54.081630641355545       86.57557155250957        5.0                      # Si
110  110  2    54.081630641355545       86.57557155250957        11.081138669036534       # Si
111  111  2    63.91434473505695        86.57557155250957        5.0                      # Si
112  112  2    63.91434473505695        86.57557155250957        11.081138669036534       # Si
113  113  2    73.74762653742428        86.57557155250957        5.0                      # Si
114  114  2    73.74762653742428        86.57557155250957        11.081138669036534       # Si
115  115  2    83.58034063112571        92.25265821169053        5.0                      # Si
116  116  2    83.58034063112571        92.25265821169053        11.081138669036534       # Si
117  117  2    93.41362243349303        92.25265821169053        5.0                      # Si
118  118  2    93.41362243349303        92.25265821169053        11.081138669036534       # Si
119  119  2    103.24633652719444       92.25265821169053        5.0                      # Si
120  120  2    103.24633652719444       92.25265821169053        11.081138669036534       # Si
121  121  2    113.07961832956178       92.25265821169053        5.0                      # Si
122  122  2    113.07961832956178       92.25265821169053        11.081138669036534       # Si
123  123  2    122.91233242326321       92.25265821169053        5.0                      # Si
124  124  2    122.91233242326321       92.25265821169053        11.081138669036534       # Si
125  125  2    132.74561422563053       92.25265821169053        5.0                      # Si
126  126  2    132.74561422563053       92.25265821169053        11.081138669036534       # Si
127  127  2    142.57832831933194       92.25265821169053        5.0                      # Si
128  128  2    142.57832831933194       92.25265821169053        11.081138669036534       # Si
129  129  2    152.41161012169928       92.25265821169053        5.0                      # Si
130  130  2    152.41161012169928       92.25265821169053        11.081138669036534       # Si
131  131  2    4.916357046850708        92.25265821169053        5.0                      # Si
132  132  2    4.916357046850708        92.25265821169053        11.081138669036534       # Si
133  133  2    14.74963884921804        92.25265821169053        5.0                      # Si
134  134  2    14.74963884921804        92.25265821169053        11.081138669036534       # Si
135  135  2    24.582352942919453       92.25265821169053        5.0                      # Si
136  136  2    24.582352942919453       92.25265821169053        11.081138669036534       # Si
137  137  2    34.41563474528679        92.25265821169053        5.0                      # Si
138  138  2    34.41563474528679        92.25265821169053        11.081138669036534       # Si
139  139  2    44.24834883898821        92.25265821169053        5.0                      # Si
140  140  2    44.24834883898821        92.25265821169053        11.081138669036534       # Si
141  141  2    54.081630641355545       92.25265821169053        5.0                      # Si
142  142  2    54.081630641355545       92.25265821169053        11.081138669036534       # Si
143  143  2    63.91434473505695        92.25265821169053        5.0                      # Si
144  144  2    63.91434473505695        92.25265821169053        11.081138669036534       # Si
145  145  2    73.74762653742428        92.25265821169053        5.0                      # Si
146  146  2    73.74762653742428        92.25265821169053        11.081138669036534       # Si
147  147  2    78.66398358427499        95.09120154128101        5.0                      # Si
148  148  2    78.66398358427499        95.09120154128101        11.081138669036534       # Si
149  149  2    88.49726538664233        95.09120154128101        5.0                      # Si
150  150  2    88.49726538664233        95.09120154128101        11.081138669036534       # Si
151  151  2    98.32997948034372        95.09120154128101        5.0                      # Si
152  152  2    98.32997948034372        95.09120154128101        11.081138669036534       # Si
153  153  2    108.16326128271109       95.09120154128101        5.0                      # Si
154  154  2    108.16326128271109       95.09120154128101        11.081138669036534       # Si
155  155  2    117.99597537641249       95.09120154128101        5.0                      # Si
156  156  2    117.99597537641249       95.09120154128101        11.081138669036534       # Si
157  157  2    127.82925717877983       95.09120154128101        5.0                      # Si
158  158  2    127.82925717877983       95.09120154128101        11.081138669036534       # Si
159  159  2    137.66197127248122       95.09120154128101        5.0                      # Si
160  160  2    137.66197127248122       95.09120154128101        11.081138669036534       # Si
161  161  2    147.49525307484856       95.09120154128101        5.0                      # Si
162  162  2    147.49525307484856       95.09120154128101        11.081138669036534       # Si
163  163  2    157.32796716854997       95.09120154128101        5.0                      # Si
164  164  2    157.32796716854997       95.09120154128101        11.081138669036534       # Si
165  165  2    9.833281802367333        95.09120154128101        5.0                      # Si
166  166  2    9.833281802367333        95.09120154128101        11.081138669036534       # Si
167  167  2    19.665995896068747       95.09120154128101        5.0                      # Si
168  168  2    19.665995896068747       95.09120154128101        11.081138669036534       # Si
169  169  2    29.49927769843608        95.09120154128101        5.0                      # Si
170  170  2    29.49927769843608        95.09120154128101        11.081138669036534       # Si
171  171  2    39.331991792137494       95.09120154128101        5.0                      # Si
172  172  2    39.331991792137494       95.09120154128101        11.081138669036534       # Si
173  173  2    49.16527359450483        95.09120154128101        5.0                      # Si
174  174  2    49.16527359450483        95.09120154128101        11.081138669036534       # Si
175  175  2    58.997987688206244       95.09120154128101        5.0                      # Si
176  176  2    58.997987688206244       95.09120154128101        11.081138669036534       # Si
177  177  2    68.83126949057358        95.09120154128101        5.0                      # Si
178  178  2    68.83126949057358        95.09120154128101        11.081138669036534       # Si
179  179  2    88.49726538664233        100.76828820046195       5.0                      # Si
180  180  2    88.49726538664233        100.76828820046195       11.081138669036534       # Si
181  181  2    98.32997948034372        100.76828820046195       5.0                      # Si
182  182  2    98.32997948034372        100.76828820046195       11.081138669036534       # Si
183  183  2    108.16326128271109       100.76828820046195       5.0                      # Si
184  184  2    108.16326128271109       100.76828820046195       11.081138669036534       # Si
185  185  2    117.99597537641249       100.76828820046195       5.0                      # Si
186  186  2    117.99597537641249       100.76828820046195       11.081138669036534       # Si
187  187  2    127.82925717877983       100.76828820046195       5.0                      # Si
188  188  2    127.82925717877983       100.76828820046195       11.081138669036534       # Si
189  189  2    137.66197127248122       100.76828820046195       5.0                      # Si
190  190  2    137.66197127248122       100.76828820046195       11.081138669036534       # Si
191  191  2    147.49525307484856       100.76828820046195       5.0                      # Si
192  192  2    147.49525307484856       100.76828820046195       11.081138669036534       # Si
193  193  2    157.32796716854997       100.76828820046195       5.0                      # Si
194  194  2    157.32796716854997       100.76828820046195       11.081138669036534       # Si
195  195  2    9.833281802367333        100.76828820046195       5.0                      # Si
196  196  2    9.833281802367333        100.76828820046195       11.081138669036534       # Si
197  197  2    19.665995896068747       100.76828820046195       5.0                      # Si
198  198  2    19.665995896068747       100.76828820046195       11.081138669036534       # Si
199  199  2    29.49927769843608        100.76828820046195       5.0                      # Si
200  200  2    29.49927769843608        100.76828820046195       11.081138669036534       # Si
201  201  2    39.331991792137494       100.76828820046195       5.0                      # Si
202  202  2    39.331991792137494       100.76828820046195       11.081138669036534       # Si
203  203  2    49.16527359450483        100.76828820046195       5.0                      # Si
204  204  2    49.16527359450483        100.76828820046195       11.081138669036534       # Si
205  205  2    58.997987688206244       100.76828820046195       5.0                      # Si
206  206  2    58.997987688206244       100.76828820046195       11.081138669036534       # Si
207  207  2    68.83126949057358        100.76828820046195       5.0                      # Si
208  208  2    68.83126949057358        100.76828820046195       11.081138669036534       # Si
209  209  2    78.66398358427499        100.76828820046195       5.0                      # Si
210  210  2    78.66398358427499        100.76828820046195       11.081138669036534       # Si
211  211  2    83.58034063112571        103.60683153005243       5.0                      # Si
212  212  2    83.58034063112571        103.60683153005243       11.081138669036534       # Si
213  213  2    93.41362243349303        103.60683153005243       5.0                      # Si
214  214  2    93.41362243349303        103.60683153005243       11.081138669036534       # Si
215  215  2    103.24633652719444       103.60683153005243       5.0                      # Si
216  216  2    103.24633652719444       103.60683153005243       11.081138669036534       # Si
217  217  2    113.07961832956178       103.60683153005243       5.0                      # Si
218  218  2    113.07961832956178       103.60683153005243       11.081138669036534       # Si
219  219  2    122.91233242326321       103.60683153005243       5.0                      # Si
220  220  2    122.91233242326321       103.60683153005243       11.081138669036534       # Si
221  221  2    132.74561422563053       103.60683153005243       5.0                      # Si
222  222  2    132.74561422563053       103.60683153005243       11.081138669036534       # Si
223  223  2    142.57832831933194       103.60683153005243       5.0                      # Si
224  224  2    142.57832831933194       103.60683153005243       11.081138669036534       # Si
225  225  2    152.41161012169928       103.60683153005243       5.0                      # Si
226  226  2    152.41161012169928       103.60683153005243       11.081138669036534       # Si
227  227  2    4.916357046850708        103.60683153005243       5.0                      # Si
228  228  2    4.916357046850708        103.60683153005243       11.081138669036534       # Si
229  229  2    14.74963884921804        103.60683153005243       5.0                      # Si
230  230  2    14.74963884921804        103.60683153005243       11.081138669036534       # Si
231  231  2    24.582352942919453       103.60683153005243       5.0                      # Si
232  232  2    24.582352942919453       103.60683153005243       11.081138669036534       # Si
233  233  2    34.41563474528679        103.60683153005243       5.0                      # Si
234  234  2    34.41563474528679        103.60683153005243       11.081138669036534       # Si
235  235  2    44.24834883898821        103.60683153005243       5.0                      # Si
236  236  2    44.24834883898821        103.60683153005243       11.081138669036534       # Si
237  237  2    54.081630641355545       103.60683153005243       5.0                      # Si
238  238  2    54.081630641355545       103.60683153005243       11.081138669036534       # Si
239  239  2    63.91434473505695        103.60683153005243       5.0                      # Si
240  240  2    63.91434473505695        103.60683153005243       11.081138669036534       # Si
241  241  2    73.74762653742428        103.60683153005243       5.0                      # Si
242  242  2    73.74762653742428        103.60683153005243       11.081138669036534       # Si
243  243  2    83.58034063112571        109.2839181892334        5.0                      # Si
244  244  2    83.58034063112571        109.2839181892334        11.081138669036534       # Si
245  245  2    93.41362243349303        109.2839181892334        5.0                      # Si
246  246  2    93.41362243349303        109.2839181892334        11.081138669036534       # Si
247  247  2    103.24633652719444       109.2839181892334        5.0                      # Si
248  248  2    103.24633652719444       109.2839181892334        11.081138669036534       # Si
249  249  2    113.07961832956178       109.2839181892334        5.0                      # Si
250  250  2    113.07961832956178       109.2839181892334        11.081138669036534       # Si
251  251  2    122.91233242326321       109.2839181892334        5.0                      # Si
252  252  2    122.91233242326321       109.2839181892334        11.081138669036534       # Si
253  253  2    132.74561422563053       109.2839181892334        5.0                      # Si
254  254  2    132.74561422563053       109.2839181892334        11.081138669036534       # Si
255  255  2    142.57832831933194       109.2839181892334        5.0                      # Si
256  256  2    142.57832831933194       109.2839181892334        11.081138669036534       # Si
257  257  2    152.41161012169928       109.2839181892334        5.0                      # Si
258  258  2    152.41161012169928       109.2839181892334        11.081138669036534       # Si
259  259  2    4.916357046850708        109.2839181892334        5.0                      # Si
260  260  2    4.916357046850708        109.2839181892334        11.081138669036534       # Si
261  261  2    14.74963884921804        109.2839181892334        5.0                      # Si
262  262  2    14.74963884921804        109.2839181892334        11.081138669036534       # Si
263  263  2    24.582352942919453       109.2839181892334        5.0                      # Si
264  264  2    24.582352942919453       109.2839181892334        11.081138669036534       # Si
265  265  2    34.41563474528679        109.2839181892334        5.0                      # Si
266  266  2    34.41563474528679        109.2839181892334        11.081138669036534       # Si
267  267  2    44.24834883898821        109.2839181892334        5.0                      # Si
268  268  2    44.24834883898821        109.2839181892334        11.081138669036534       # Si
269  269  2    54.081630641355545       109.2839181892334        5.0                      # Si
270  270  2    54.081630641355545       109.2839181892334        11.081138669036534       # Si
271  271  2    63.91434473505695        109.2839181892334        5.0                      # Si
272  272  2    63.91434473505695        109.2839181892334        11.081138669036534       # Si
273  273  2    73.74762653742428        109.2839181892334        5.0                      # Si
274  274  2    73.74762653742428        109.2839181892334        11.081138669036534       # Si
275  275  2    78.66398358427499        112.12246151882387       5.0                      # Si
276  276  2    78.66398358427499        112.12246151882387       11.081138669036534       # Si
277  277  2    88.49726538664233        112.12246151882387       5.0                      # Si
278  278  2    88.49726538664233        112.12246151882387       11.081138669036534       # Si
279  279  2    98.32997948034372        112.12246151882387       5.0                      # Si
280  280  2    98.32997948034372        112.12246151882387       11.081138669036534       # Si
281  281  2    108.16326128271109       112.12246151882387       5.0                      # Si
282  282  2    108.16326128271109       112.12246151882387       11.081138669036534       # Si
283  283  2    117.99597537641249       112.12246151882387       5.0                      # Si
284  284  2    117.99597537641249       112.12246151882387       11.081138669036534       # Si
285  285  2    127.82925717877983       112.12246151882387       5.0                      # Si
286  286  2    127.82925717877983       112.12246151882387       11.081138669036534       # Si
287  287  2    137.66197127248122       112.12246151882387       5.0                      # Si
288  288  2    137.66197127248122       112.12246151882387       11.081138669036534       # Si
289  289  2    147.49525307484856       112.12246151882387       5.0                      # Si
290  290  2    147.49525307484856       112.12246151882387       11.081138669036534       # Si
291  291  2    157.32796716854997       112.12246151882387       5.0                      # Si
292  292  2    157.32796716854997       112.12246151882387       11.081138669036534       # Si
293  293  2    9.833281802367333        112.12246151882387       5.0                      # Si
294  294  2    9.833281802367333        112.12246151882387       11.081138669036534       # Si
295  295  2    19.665995896068747       112.12246151882387       5.0                      # Si
296  296  2    19.665995896068747       112.12246151882387       11.081138669036534       # Si
297  297  2    29.49927769843608        112.12246151882387       5.0                      # Si
298  298  2    29.49927769843608        112.12246151882387       11.081138669036534       # Si
299  299  2    39.331991792137494       112.12246151882387       5.0                      # Si
300  300  2    39.331991792137494       112.12246151882387       11.081138669036534       # Si
301  301  2    49.16527359450483        112.12246151882387       5.0                      # Si
302  302  2    49.16527359450483        112.12246151882387       11.081138669036534       # Si
303  303  2    58.997987688206244       112.12246151882387       5.0                      # Si
304  304  2    58.997987688206244       112.12246151882387       11.081138669036534       # Si
305  305  2    68.83126949057358        112.12246151882387       5.0                      # Si
306  306  2    68.83126949057358        112.12246151882387       11.081138669036534       # Si
307  307  2    88.49726538664233        117.79954817800483       5.0                      # Si
308  308  2    88.49726538664233        117.79954817800483       11.081138669036534       # Si
309  309  2    98.32997948034372        117.79954817800483       5.0                      # Si
310  310  2    98.32997948034372        117.79954817800483       11.081138669036534       # Si
311  311  2    108.16326128271109       117.79954817800483       5.0                      # Si